TITLE = "Reduced Structural Grid"
VARIABLES = "x" "y" "z" "id" "familynum" "forcenode" "displnode" "body"
ZONE T="Structural nodes" I=25 , J=1, K=1, F=POINT
4.000000000000000e+00 0.000000000000000e+00 0.000000000000000e+00 500000 1 1 1 1
8.000000000000000e+00 0.000000000000000e+00 0.000000000000000e+00 500001 1 1 1 1
1.200000000000000e+01 0.000000000000000e+00 0.000000000000000e+00 500002 1 1 1 1
1.600000000000000e+01 0.000000000000000e+00 0.000000000000000e+00 500003 1 1 1 1
2.000000000000000e+01 0.000000000000000e+00 0.000000000000000e+00 500004 1 1 1 1
2.400000000000000e+01 0.000000000000000e+00 0.000000000000000e+00 500005 1 1 1 1
2.800000000000000e+01 0.000000000000000e+00 0.000000000000000e+00 500006 1 1 1 1
3.200000000000000e+01 0.000000000000000e+00 0.000000000000000e+00 500007 1 1 1 1
3.600000000000000e+01 0.000000000000000e+00 0.000000000000000e+00 500008 1 1 1 1
4.000000000000000e+01 0.000000000000000e+00 0.000000000000000e+00 500009 1 1 1 1
4.400000000000000e+01 0.000000000000000e+00 0.000000000000000e+00 500010 1 1 1 1
4.800000000000000e+01 0.000000000000000e+00 0.000000000000000e+00 500011 1 1 1 1
5.200000000000000e+01 0.000000000000000e+00 0.000000000000000e+00 500012 1 1 1 1
5.600000000000000e+01 0.000000000000000e+00 0.000000000000000e+00 500013 1 1 1 1
6.000000000000000e+01 0.000000000000000e+00 0.000000000000000e+00 500014 1 1 1 1
6.400000000000000e+01 0.000000000000000e+00 0.000000000000000e+00 500015 1 1 1 1
6.800000000000000e+01 0.000000000000000e+00 0.000000000000000e+00 500016 1 1 1 1
7.200000000000000e+01 0.000000000000000e+00 0.000000000000000e+00 500017 1 1 1 1
7.600000000000000e+01 0.000000000000000e+00 0.000000000000000e+00 500018 1 1 1 1
8.000000000000000e+01 0.000000000000000e+00 0.000000000000000e+00 500019 1 1 1 1
8.400000000000000e+01 0.000000000000000e+00 0.000000000000000e+00 500020 1 1 1 1
8.800000000000000e+01 0.000000000000000e+00 0.000000000000000e+00 500021 1 1 1 1
9.200000000000000e+01 0.000000000000000e+00 0.000000000000000e+00 500022 1 1 1 1
9.600000000000000e+01 0.000000000000000e+00 0.000000000000000e+00 500023 1 1 1 1
1.000000000000000e+02 0.000000000000000e+00 0.000000000000000e+00 500024 1 1 1 1
