TITLE = "Reduced Structural Grid"
VARIABLES = "x" "y" "z" "id" "familynum" "forcenode" "displnode" "body"
ZONE T="Structural nodes" I=25 , J=1, K=1, F=POINT
0.000000000000000e+00 0.000000000000000e+00 0.000000000000000e+00 499999 1 1 1 1
2.500000000000000e-01 -3.333330000000000e-01 0.000000000000000e+00 500000 1 1 1 1
5.000000000000000e-01 -6.666670000000000e-01 0.000000000000000e+00 500001 1 1 1 1
7.500000000000000e-01 -1.000000000000000e+00 0.000000000000000e+00 500002 1 1 1 1
1.000000000000000e+00 -1.333330000000000e+00 0.000000000000000e+00 500003 1 1 1 1
1.250000000000000e+00 -1.666670000000000e+00 0.000000000000000e+00 500004 1 1 1 1
1.500000000000000e+00 -2.000000000000000e+00 0.000000000000000e+00 500005 1 1 1 1
1.750000000000000e+00 -2.333330000000000e+00 0.000000000000000e+00 500006 1 1 1 1
2.000000000000000e+00 -2.666670000000000e+00 0.000000000000000e+00 500007 1 1 1 1
2.250000000000000e+00 -3.000000000000000e+00 0.000000000000000e+00 500008 1 1 1 1
2.500000000000000e+00 -3.333330000000000e+00 0.000000000000000e+00 500009 1 1 1 1
2.750000000000000e+00 -3.666670000000000e+00 0.000000000000000e+00 500010 1 1 1 1
3.000000000000000e+00 -4.000000000000000e+00 0.000000000000000e+00 500011 1 1 1 1
3.250000000000000e+00 -4.333330000000000e+00 0.000000000000000e+00 500012 1 1 1 1
3.500000000000000e+00 -4.666670000000000e+00 0.000000000000000e+00 500013 1 1 1 1
3.750000000000000e+00 -5.000000000000000e+00 0.000000000000000e+00 500014 1 1 1 1
4.000000000000000e+00 -5.333330000000000e+00 0.000000000000000e+00 500015 1 1 1 1
4.250000000000000e+00 -5.666670000000000e+00 0.000000000000000e+00 500016 1 1 1 1
4.500000000000000e+00 -6.000000000000000e+00 0.000000000000000e+00 500017 1 1 1 1
4.750000000000000e+00 -6.333330000000000e+00 0.000000000000000e+00 500018 1 1 1 1
5.000000000000000e+00 -6.666670000000000e+00 0.000000000000000e+00 500019 1 1 1 1
5.250000000000000e+00 -7.000000000000000e+00 0.000000000000000e+00 500020 1 1 1 1
5.500000000000000e+00 -7.333330000000000e+00 0.000000000000000e+00 500021 1 1 1 1
5.750000000000000e+00 -7.666670000000000e+00 0.000000000000000e+00 500022 1 1 1 1
6.000000000000000e+00 -8.000000000000000e+00 0.000000000000000e+00 500023 1 1 1 1
