TITLE = "Reduced Structural Grid"
VARIABLES = "x" "y" "z" "id" "familynum" "forcenode" "displnode" "body"
ZONE T="Structural nodes" I=50 , J=1, K=1, F=POINT
0.000000000000000e+00 0.000000000000000e+00 0.000000000000000e+00 499999 1 1 1 1
1.224490000000000e-01 -1.632650000000000e-01 0.000000000000000e+00 500000 1 1 1 1
2.448980000000000e-01 -3.265310000000000e-01 0.000000000000000e+00 500001 1 1 1 1
3.673469000000000e-01 -4.897960000000000e-01 0.000000000000000e+00 500002 1 1 1 1
4.897959000000000e-01 -6.530610000000000e-01 0.000000000000000e+00 500003 1 1 1 1
6.122449000000000e-01 -8.163270000000000e-01 0.000000000000000e+00 500004 1 1 1 1
7.346939000000000e-01 -9.795920000000000e-01 0.000000000000000e+00 500005 1 1 1 1
8.571429000000000e-01 -1.142860000000000e+00 0.000000000000000e+00 500006 1 1 1 1
9.795918000000000e-01 -1.306120000000000e+00 0.000000000000000e+00 500007 1 1 1 1
1.102041000000000e+00 -1.469390000000000e+00 0.000000000000000e+00 500008 1 1 1 1
1.224490000000000e+00 -1.632650000000000e+00 0.000000000000000e+00 500009 1 1 1 1
1.346939000000000e+00 -1.795920000000000e+00 0.000000000000000e+00 500010 1 1 1 1
1.469388000000000e+00 -1.959180000000000e+00 0.000000000000000e+00 500011 1 1 1 1
1.591837000000000e+00 -2.122450000000000e+00 0.000000000000000e+00 500012 1 1 1 1
1.714286000000000e+00 -2.285710000000000e+00 0.000000000000000e+00 500013 1 1 1 1
1.836735000000000e+00 -2.448980000000000e+00 0.000000000000000e+00 500014 1 1 1 1
1.959184000000000e+00 -2.612240000000000e+00 0.000000000000000e+00 500015 1 1 1 1
2.081633000000000e+00 -2.775510000000000e+00 0.000000000000000e+00 500016 1 1 1 1
2.204082000000000e+00 -2.938780000000000e+00 0.000000000000000e+00 500017 1 1 1 1
2.326531000000000e+00 -3.102040000000000e+00 0.000000000000000e+00 500018 1 1 1 1
2.448980000000000e+00 -3.265310000000000e+00 0.000000000000000e+00 500019 1 1 1 1
2.571429000000000e+00 -3.428570000000000e+00 0.000000000000000e+00 500020 1 1 1 1
2.693878000000000e+00 -3.591840000000000e+00 0.000000000000000e+00 500021 1 1 1 1
2.816327000000000e+00 -3.755100000000000e+00 0.000000000000000e+00 500022 1 1 1 1
2.938776000000000e+00 -3.918370000000000e+00 0.000000000000000e+00 500023 1 1 1 1
3.061224000000000e+00 -4.081630000000000e+00 0.000000000000000e+00 500024 1 1 1 1
3.183673000000000e+00 -4.244900000000000e+00 0.000000000000000e+00 500025 1 1 1 1
3.306122000000000e+00 -4.408160000000000e+00 0.000000000000000e+00 500026 1 1 1 1
3.428571000000000e+00 -4.571430000000000e+00 0.000000000000000e+00 500027 1 1 1 1
3.551020000000000e+00 -4.734690000000000e+00 0.000000000000000e+00 500028 1 1 1 1
3.673469000000000e+00 -4.897960000000000e+00 0.000000000000000e+00 500029 1 1 1 1
3.795918000000000e+00 -5.061220000000000e+00 0.000000000000000e+00 500030 1 1 1 1
3.918367000000000e+00 -5.224490000000000e+00 0.000000000000000e+00 500031 1 1 1 1
4.040816000000000e+00 -5.387760000000000e+00 0.000000000000000e+00 500032 1 1 1 1
4.163265000000000e+00 -5.551020000000000e+00 0.000000000000000e+00 500033 1 1 1 1
4.285714000000000e+00 -5.714290000000000e+00 0.000000000000000e+00 500034 1 1 1 1
4.408163000000000e+00 -5.877550000000000e+00 0.000000000000000e+00 500035 1 1 1 1
4.530612000000000e+00 -6.040820000000000e+00 0.000000000000000e+00 500036 1 1 1 1
4.653061000000000e+00 -6.204080000000000e+00 0.000000000000000e+00 500037 1 1 1 1
4.775510000000000e+00 -6.367350000000000e+00 0.000000000000000e+00 500038 1 1 1 1
4.897959000000000e+00 -6.530610000000000e+00 0.000000000000000e+00 500039 1 1 1 1
5.020408000000000e+00 -6.693880000000000e+00 0.000000000000000e+00 500040 1 1 1 1
5.142857000000000e+00 -6.857140000000000e+00 0.000000000000000e+00 500041 1 1 1 1
5.265306000000000e+00 -7.020410000000000e+00 0.000000000000000e+00 500042 1 1 1 1
5.387755000000000e+00 -7.183670000000000e+00 0.000000000000000e+00 500043 1 1 1 1
5.510204000000000e+00 -7.346940000000000e+00 0.000000000000000e+00 500044 1 1 1 1
5.632653000000000e+00 -7.510200000000000e+00 0.000000000000000e+00 500045 1 1 1 1
5.755102000000000e+00 -7.673470000000000e+00 0.000000000000000e+00 500046 1 1 1 1
5.877551000000000e+00 -7.836730000000000e+00 0.000000000000000e+00 500047 1 1 1 1
6.000000000000000e+00 -8.000000000000000e+00 0.000000000000000e+00 500048 1 1 1 1
