TITLE = "Reduced Structural Grid"
VARIABLES = "x" "y" "z" "id" "familynum" "forcenode" "displnode" "body"
ZONE T="Structural nodes" I=15 , J=1, K=1, F=POINT
1.370465000000000e-01 5.233596000000000e+00 0.000000000000000e+00 1 1 1 1 1
5.478105000000000e-01 1.045285000000000e+01 0.000000000000000e+00 2 2 1 1 1
1.231166000000000e+00 1.564345000000000e+01 0.000000000000000e+00 3 3 1 1 1
2.185240000000000e+00 2.079117000000000e+01 0.000000000000000e+00 4 4 1 1 1
3.407417000000000e+00 2.588190000000000e+01 0.000000000000000e+00 5 5 1 1 1
4.894348000000000e+00 3.090170000000000e+01 0.000000000000000e+00 6 6 1 1 1
6.641957000000000e+00 3.583679000000000e+01 0.000000000000000e+00 7 7 1 1 1
8.645454000000001e+00 4.067366000000000e+01 0.000000000000000e+00 8 8 1 1 1
1.089935000000000e+01 4.539905000000000e+01 0.000000000000000e+00 9 9 1 1 1
1.339746000000000e+01 5.000000000000000e+01 0.000000000000000e+00 10 10 1 1 1
1.613294000000000e+01 5.446390000000000e+01 0.000000000000000e+00 11 11 1 1 1
1.909830000000000e+01 5.877853000000000e+01 0.000000000000000e+00 12 12 1 1 1
2.228540000000000e+01 6.293204000000000e+01 0.000000000000000e+00 13 13 1 1 1
2.568552000000000e+01 6.691306000000000e+01 0.000000000000000e+00 14 14 1 1 1
2.928932000000000e+01 7.071068000000000e+01 0.000000000000000e+00 15 15 1 1 1
