TITLE = "Reduced Structural Grid"
VARIABLES = "x" "y" "z" "id" "familynum" "forcenode" "displnode" "body"
ZONE T="Structural nodes" I=4 , J=1, K=1, F=POINT
6.000000000000000e+01 0.000000000000000e+00 0.000000000000000e+00 1 1 1 1 1
8.000000000000000e+01 0.000000000000000e+00 0.000000000000000e+00 2 1 1 1 1
0.000000000000000e+00 0.000000000000000e+00 0.000000000000000e+00 3 1 1 1 1
6.000000000000000e+01 0.000000000000000e+00 0.000000000000000e+00 4 1 1 1 1
