TITLE = "Reduced Structural Grid"
VARIABLES = "x" "y" "z" "id" "familynum" "forcenode" "displnode" "body"
ZONE T="Structural nodes" I=50 , J=1, K=1, F=POINT
2.000000000000000e+00 0.000000000000000e+00 0.000000000000000e+00 500000 1 1 1 1
4.000000000000000e+00 0.000000000000000e+00 0.000000000000000e+00 500001 1 1 1 1
6.000000000000000e+00 0.000000000000000e+00 0.000000000000000e+00 500002 1 1 1 1
8.000000000000000e+00 0.000000000000000e+00 0.000000000000000e+00 500003 1 1 1 1
1.000000000000000e+01 0.000000000000000e+00 0.000000000000000e+00 500004 1 1 1 1
1.200000000000000e+01 0.000000000000000e+00 0.000000000000000e+00 500005 1 1 1 1
1.400000000000000e+01 0.000000000000000e+00 0.000000000000000e+00 500006 1 1 1 1
1.600000000000000e+01 0.000000000000000e+00 0.000000000000000e+00 500007 1 1 1 1
1.800000000000000e+01 0.000000000000000e+00 0.000000000000000e+00 500008 1 1 1 1
2.000000000000000e+01 0.000000000000000e+00 0.000000000000000e+00 500009 1 1 1 1
2.200000000000000e+01 0.000000000000000e+00 0.000000000000000e+00 500010 1 1 1 1
2.400000000000000e+01 0.000000000000000e+00 0.000000000000000e+00 500011 1 1 1 1
2.600000000000000e+01 0.000000000000000e+00 0.000000000000000e+00 500012 1 1 1 1
2.800000000000000e+01 0.000000000000000e+00 0.000000000000000e+00 500013 1 1 1 1
3.000000000000000e+01 0.000000000000000e+00 0.000000000000000e+00 500014 1 1 1 1
3.200000000000000e+01 0.000000000000000e+00 0.000000000000000e+00 500015 1 1 1 1
3.400000000000000e+01 0.000000000000000e+00 0.000000000000000e+00 500016 1 1 1 1
3.600000000000000e+01 0.000000000000000e+00 0.000000000000000e+00 500017 1 1 1 1
3.800000000000000e+01 0.000000000000000e+00 0.000000000000000e+00 500018 1 1 1 1
4.000000000000000e+01 0.000000000000000e+00 0.000000000000000e+00 500019 1 1 1 1
4.200000000000000e+01 0.000000000000000e+00 0.000000000000000e+00 500020 1 1 1 1
4.400000000000000e+01 0.000000000000000e+00 0.000000000000000e+00 500021 1 1 1 1
4.600000000000000e+01 0.000000000000000e+00 0.000000000000000e+00 500022 1 1 1 1
4.800000000000000e+01 0.000000000000000e+00 0.000000000000000e+00 500023 1 1 1 1
5.000000000000000e+01 0.000000000000000e+00 0.000000000000000e+00 500024 1 1 1 1
5.200000000000000e+01 0.000000000000000e+00 0.000000000000000e+00 500025 1 1 1 1
5.400000000000000e+01 0.000000000000000e+00 0.000000000000000e+00 500026 1 1 1 1
5.600000000000000e+01 0.000000000000000e+00 0.000000000000000e+00 500027 1 1 1 1
5.800000000000000e+01 0.000000000000000e+00 0.000000000000000e+00 500028 1 1 1 1
6.000000000000000e+01 0.000000000000000e+00 0.000000000000000e+00 500029 1 1 1 1
6.200000000000000e+01 0.000000000000000e+00 0.000000000000000e+00 500030 1 1 1 1
6.400000000000000e+01 0.000000000000000e+00 0.000000000000000e+00 500031 1 1 1 1
6.600000000000000e+01 0.000000000000000e+00 0.000000000000000e+00 500032 1 1 1 1
6.800000000000000e+01 0.000000000000000e+00 0.000000000000000e+00 500033 1 1 1 1
7.000000000000000e+01 0.000000000000000e+00 0.000000000000000e+00 500034 1 1 1 1
7.200000000000000e+01 0.000000000000000e+00 0.000000000000000e+00 500035 1 1 1 1
7.400000000000000e+01 0.000000000000000e+00 0.000000000000000e+00 500036 1 1 1 1
7.600000000000000e+01 0.000000000000000e+00 0.000000000000000e+00 500037 1 1 1 1
7.800000000000000e+01 0.000000000000000e+00 0.000000000000000e+00 500038 1 1 1 1
8.000000000000000e+01 0.000000000000000e+00 0.000000000000000e+00 500039 1 1 1 1
8.200000000000000e+01 0.000000000000000e+00 0.000000000000000e+00 500040 1 1 1 1
8.400000000000000e+01 0.000000000000000e+00 0.000000000000000e+00 500041 1 1 1 1
8.600000000000000e+01 0.000000000000000e+00 0.000000000000000e+00 500042 1 1 1 1
8.800000000000000e+01 0.000000000000000e+00 0.000000000000000e+00 500043 1 1 1 1
9.000000000000000e+01 0.000000000000000e+00 0.000000000000000e+00 500044 1 1 1 1
9.200000000000000e+01 0.000000000000000e+00 0.000000000000000e+00 500045 1 1 1 1
9.400000000000000e+01 0.000000000000000e+00 0.000000000000000e+00 500046 1 1 1 1
9.600000000000000e+01 0.000000000000000e+00 0.000000000000000e+00 500047 1 1 1 1
9.800000000000000e+01 0.000000000000000e+00 0.000000000000000e+00 500048 1 1 1 1
1.000000000000000e+02 0.000000000000000e+00 0.000000000000000e+00 500049 1 1 1 1
