TITLE = "Reduced Structural Grid"
VARIABLES = "x" "y" "z" "id" "familynum" "forcenode" "displnode" "body"
ZONE T="Structural nodes" I=18 , J=1, K=1, F=POINT
5.781111000000000e+00 0.000000000000000e+00 0.000000000000000e+00 1 1 1 1 1
1.156222000000000e+01 0.000000000000000e+00 0.000000000000000e+00 2 1 1 1 1
1.734333000000000e+01 0.000000000000000e+00 0.000000000000000e+00 3 1 1 1 1
2.312444000000000e+01 0.000000000000000e+00 0.000000000000000e+00 4 1 1 1 1
2.890556000000000e+01 0.000000000000000e+00 0.000000000000000e+00 5 1 1 1 1
3.468667000000000e+01 0.000000000000000e+00 0.000000000000000e+00 6 1 1 1 1
4.046778000000000e+01 0.000000000000000e+00 0.000000000000000e+00 7 1 1 1 1
4.624889000000000e+01 0.000000000000000e+00 0.000000000000000e+00 8 1 1 1 1
5.203000000000000e+01 0.000000000000000e+00 0.000000000000000e+00 9 1 1 1 1
5.766556000000000e+01 0.000000000000000e+00 0.000000000000000e+00 10 2 1 1 1
6.330111000000000e+01 0.000000000000000e+00 0.000000000000000e+00 11 2 1 1 1
6.893667000000001e+01 0.000000000000000e+00 0.000000000000000e+00 12 2 1 1 1
7.457222000000000e+01 0.000000000000000e+00 0.000000000000000e+00 13 2 1 1 1
8.020778000000000e+01 0.000000000000000e+00 0.000000000000000e+00 14 2 1 1 1
8.584332999999999e+01 0.000000000000000e+00 0.000000000000000e+00 15 2 1 1 1
9.147889000000001e+01 0.000000000000000e+00 0.000000000000000e+00 16 2 1 1 1
9.711444000000000e+01 0.000000000000000e+00 0.000000000000000e+00 17 2 1 1 1
1.027500000000000e+02 0.000000000000000e+00 0.000000000000000e+00 18 2 1 1 1
