TITLE = "Reduced Structural Grid"
VARIABLES = "x" "y" "z" "id" "familynum" "forcenode" "displnode" "body"
ZONE T="Structural nodes" I=25 , J=1, K=1, F=POINT
4.000000000000000e+00 0.000000000000000e+00 0.000000000000000e+00 1 1 1 1 1
8.000000000000000e+00 0.000000000000000e+00 0.000000000000000e+00 2 1 1 1 1
1.200000000000000e+01 0.000000000000000e+00 0.000000000000000e+00 3 1 1 1 1
1.600000000000000e+01 0.000000000000000e+00 0.000000000000000e+00 4 1 1 1 1
2.000000000000000e+01 0.000000000000000e+00 0.000000000000000e+00 5 1 1 1 1
2.400000000000000e+01 0.000000000000000e+00 0.000000000000000e+00 6 1 1 1 1
2.800000000000000e+01 0.000000000000000e+00 0.000000000000000e+00 7 1 1 1 1
3.200000000000000e+01 0.000000000000000e+00 0.000000000000000e+00 8 1 1 1 1
3.600000000000000e+01 0.000000000000000e+00 0.000000000000000e+00 9 1 1 1 1
4.000000000000000e+01 0.000000000000000e+00 0.000000000000000e+00 10 1 1 1 1
4.400000000000000e+01 0.000000000000000e+00 0.000000000000000e+00 11 1 1 1 1
4.800000000000000e+01 0.000000000000000e+00 0.000000000000000e+00 12 1 1 1 1
5.200000000000000e+01 0.000000000000000e+00 0.000000000000000e+00 13 1 1 1 1
5.600000000000000e+01 0.000000000000000e+00 0.000000000000000e+00 14 1 1 1 1
6.000000000000000e+01 0.000000000000000e+00 0.000000000000000e+00 15 1 1 1 1
6.400000000000000e+01 0.000000000000000e+00 0.000000000000000e+00 16 1 1 1 1
6.800000000000000e+01 0.000000000000000e+00 0.000000000000000e+00 17 1 1 1 1
7.200000000000000e+01 0.000000000000000e+00 0.000000000000000e+00 18 1 1 1 1
7.600000000000000e+01 0.000000000000000e+00 0.000000000000000e+00 19 1 1 1 1
8.000000000000000e+01 0.000000000000000e+00 0.000000000000000e+00 20 1 1 1 1
8.400000000000000e+01 0.000000000000000e+00 0.000000000000000e+00 21 1 1 1 1
8.800000000000000e+01 0.000000000000000e+00 0.000000000000000e+00 22 1 1 1 1
9.200000000000000e+01 0.000000000000000e+00 0.000000000000000e+00 23 1 1 1 1
9.600000000000000e+01 0.000000000000000e+00 0.000000000000000e+00 24 1 1 1 1
1.000000000000000e+02 0.000000000000000e+00 0.000000000000000e+00 25 1 1 1 1
