TITLE = "Reduced Structural Grid"
VARIABLES = "x" "y" "z" "id" "familynum" "forcenode" "displnode" "body"
ZONE T="Structural nodes" I=30 , J=1, K=1, F=POINT
6.666666999999999e-01 0.000000000000000e+00 0.000000000000000e+00 1 1 1 1 1
1.333333000000000e+00 0.000000000000000e+00 0.000000000000000e+00 2 1 1 1 1
2.000000000000000e+00 0.000000000000000e+00 0.000000000000000e+00 3 1 1 1 1
2.666667000000000e+00 0.000000000000000e+00 0.000000000000000e+00 4 1 1 1 1
3.333333000000000e+00 0.000000000000000e+00 0.000000000000000e+00 5 1 1 1 1
4.000000000000000e+00 0.000000000000000e+00 0.000000000000000e+00 6 1 1 1 1
4.666667000000000e+00 0.000000000000000e+00 0.000000000000000e+00 7 1 1 1 1
5.333333000000000e+00 0.000000000000000e+00 0.000000000000000e+00 8 1 1 1 1
6.000000000000000e+00 0.000000000000000e+00 0.000000000000000e+00 9 1 1 1 1
6.666667000000000e+00 0.000000000000000e+00 0.000000000000000e+00 10 1 1 1 1
7.333333000000000e+00 0.000000000000000e+00 0.000000000000000e+00 11 1 1 1 1
8.000000000000000e+00 0.000000000000000e+00 0.000000000000000e+00 12 1 1 1 1
8.666667000000000e+00 0.000000000000000e+00 0.000000000000000e+00 13 1 1 1 1
9.333333000000000e+00 0.000000000000000e+00 0.000000000000000e+00 14 1 1 1 1
1.000000000000000e+01 0.000000000000000e+00 0.000000000000000e+00 15 1 1 1 1
1.066667000000000e+01 0.000000000000000e+00 0.000000000000000e+00 16 1 1 1 1
1.133333000000000e+01 0.000000000000000e+00 0.000000000000000e+00 17 1 1 1 1
1.200000000000000e+01 0.000000000000000e+00 0.000000000000000e+00 18 1 1 1 1
1.266667000000000e+01 0.000000000000000e+00 0.000000000000000e+00 19 1 1 1 1
1.333333000000000e+01 0.000000000000000e+00 0.000000000000000e+00 20 1 1 1 1
1.400000000000000e+01 0.000000000000000e+00 0.000000000000000e+00 21 1 1 1 1
1.466667000000000e+01 0.000000000000000e+00 0.000000000000000e+00 22 1 1 1 1
1.533333000000000e+01 0.000000000000000e+00 0.000000000000000e+00 23 1 1 1 1
1.600000000000000e+01 0.000000000000000e+00 0.000000000000000e+00 24 1 1 1 1
1.666667000000000e+01 0.000000000000000e+00 0.000000000000000e+00 25 1 1 1 1
1.733333000000000e+01 0.000000000000000e+00 0.000000000000000e+00 26 1 1 1 1
1.800000000000000e+01 0.000000000000000e+00 0.000000000000000e+00 27 1 1 1 1
1.866667000000000e+01 0.000000000000000e+00 0.000000000000000e+00 28 1 1 1 1
1.933333000000000e+01 0.000000000000000e+00 0.000000000000000e+00 29 1 1 1 1
2.000000000000000e+01 0.000000000000000e+00 0.000000000000000e+00 30 1 1 1 1
