TITLE = "Reduced Structural Grid"
VARIABLES = "x" "y" "z" "id" "familynum" "forcenode" "displnode" "body"
ZONE T="Structural nodes" I=20 , J=1, K=1, F=POINT
0.000000000000000e+00 2.400000000000000e+00 0.000000000000000e+00 1 1 1 1 1
0.000000000000000e+00 4.800000000000000e+00 0.000000000000000e+00 2 1 1 1 1
0.000000000000000e+00 7.200000000000000e+00 0.000000000000000e+00 3 1 1 1 1
0.000000000000000e+00 9.600000000000000e+00 0.000000000000000e+00 4 1 1 1 1
0.000000000000000e+00 1.200000000000000e+01 0.000000000000000e+00 5 1 1 1 1
0.000000000000000e+00 1.440000000000000e+01 0.000000000000000e+00 6 1 1 1 1
0.000000000000000e+00 1.680000000000000e+01 0.000000000000000e+00 7 1 1 1 1
0.000000000000000e+00 1.920000000000000e+01 0.000000000000000e+00 8 1 1 1 1
0.000000000000000e+00 2.160000000000000e+01 0.000000000000000e+00 9 1 1 1 1
0.000000000000000e+00 2.400000000000000e+01 0.000000000000000e+00 10 1 1 1 1
2.400000000000000e+00 2.400000000000000e+01 0.000000000000000e+00 11 2 1 1 1
4.800000000000000e+00 2.400000000000000e+01 0.000000000000000e+00 12 2 1 1 1
7.200000000000000e+00 2.400000000000000e+01 0.000000000000000e+00 13 2 1 1 1
9.600000000000000e+00 2.400000000000000e+01 0.000000000000000e+00 14 2 1 1 1
1.200000000000000e+01 2.400000000000000e+01 0.000000000000000e+00 15 2 1 1 1
1.440000000000000e+01 2.400000000000000e+01 0.000000000000000e+00 16 2 1 1 1
1.680000000000000e+01 2.400000000000000e+01 0.000000000000000e+00 17 2 1 1 1
1.920000000000000e+01 2.400000000000000e+01 0.000000000000000e+00 18 2 1 1 1
2.160000000000000e+01 2.400000000000000e+01 0.000000000000000e+00 19 2 1 1 1
2.400000000000000e+01 2.400000000000000e+01 0.000000000000000e+00 20 2 1 1 1
