TITLE = "Reduced Structural Grid"
VARIABLES = "x" "y" "z" "id" "familynum" "forcenode" "displnode" "body"
ZONE T="Structural nodes" I=30 , J=1, K=1, F=POINT
2. 4.  0. 0 0
2. 8.  0. 1 0
2. 12. 0. 2 0
2. 16. 0. 3 0
2. 20. 0. 4 0
2. 24. 0. 5 0
2. 28. 0. 6 0
2. 32. 0. 7 0
2. 36. 0. 8 0
2. 40. 0. 9 0
