<VTKFile byte_order="LittleEndian" type="UnstructuredGrid" version="0.1">
  <UnstructuredGrid>
    <Piece NumberOfCells="66" NumberOfPoints="49">
      <Points>
        <DataArray type="Float64" format="ascii" NumberOfComponents="3">0.0 0.0 -0.6028 3.8062 0.0 0.0 7.6048 0.0 0.0 11.4071 0.0 0.0 15.6286 0.0 0.0 16.5335 0.0 0.0 22.8143 0.0 0.0 27.4511 0.0 0.0 30.419 0.0 0.2989 34.1749 0.0 0.6771 38.0238 0.0 1.0646 34.1749 0.0 1.2687 34.6321 0.0 1.7946 35.0892 0.0 2.3205 35.5464 0.0 2.8464 36.0036 0.0 3.3723 36.4607 0.0 3.8982 36.9003 0.0 4.4039 37.3398 0.0 4.9095 37.7793 0.0 5.4151 38.2189 0.0 5.9207 38.7465 0.0 6.5277 38.3537 0.0 5.9207 38.3537 0.1261 5.9207 38.3537 0.2522 5.9207 38.5245 0.7876 5.8927 38.6953 1.323 5.8646 38.8661 1.8583 5.8366 39.037 2.3937 5.8085 39.2078 2.9291 5.7805 39.3635 3.4172 5.7549 39.5193 3.9053 5.7293 39.675 4.3934 5.7037 39.8308 4.8816 5.6781 39.9865 5.3697 5.6525 40.1423 5.8578 5.627 38.3537 -0.1261 5.9207 38.3537 -0.2522 5.9207 38.5245 -0.7876 5.8927 38.6953 -1.323 5.8646 38.8661 -1.8583 5.8366 39.037 -2.3937 5.8085 39.2078 -2.9291 5.7805 39.3635 -3.4172 5.7549 39.5193 -3.9053 5.7293 39.675 -4.3934 5.7037 39.8308 -4.8816 5.6781 39.9865 -5.3697 5.6525 40.1423 -5.8578 5.627 </DataArray>
      </Points>
      <PointData>
        <DataArray type="Int32" NumberOfComponents="1" format="ascii" Name="GRID_ID">1000 1001 1002 1003 1004 1005 1006 1007 1008 1009 1010 3000 3001 3002 3003 3004 3005 3006 3007 3008 3009 3010 4000 4001 4002 4003 4004 4005 4006 4007 4008 4009 4010 4011 4012 4013 10004001 10004002 10004003 10004004 10004005 10004006 10004007 10004008 10004009 10004010 10004011 10004012 10004013 </DataArray>
      </PointData>
      <Cells>
        <DataArray type="Int32" format="ascii" Name="connectivity">0 1 1 2 2 3 3 4 4 5 5 6 6 7 7 8 8 9 9 10 11 12 12 13 13 14 14 15 15 16 16 17 17 18 18 19 19 20 20 21 22 23 23 24 24 25 25 26 26 27 27 28 28 29 29 30 30 31 31 32 32 33 33 34 34 35 0 1 1 2 2 3 3 4 4 5 5 6 6 7 7 8 8 9 9 10 11 12 12 13 13 14 14 15 15 16 16 17 17 18 18 19 19 20 20 21 36 22 37 36 38 37 39 38 40 39 41 40 42 41 43 42 44 43 45 44 46 45 47 46 48 47 </DataArray>
        <DataArray type="Int32" format="ascii" Name="offsets">2 4 6 8 10 12 14 16 18 20 22 24 26 28 30 32 34 36 38 40 42 44 46 48 50 52 54 56 58 60 62 64 66 68 70 72 74 76 78 80 82 84 86 88 90 92 94 96 98 100 102 104 106 108 110 112 114 116 118 120 122 124 126 128 130 132 </DataArray>
        <DataArray type="Int32" format="ascii" Name="types">3 3 3 3 3 3 3 3 3 3 3 3 3 3 3 3 3 3 3 3 3 3 3 3 3 3 3 3 3 3 3 3 3 3 3 3 3 3 3 3 3 3 3 3 3 3 3 3 3 3 3 3 3 3 3 3 3 3 3 3 3 3 3 3 3 3 </DataArray>
      </Cells>
      <CellData>
        <DataArray type="Int32" NumberOfComponents="1" format="ascii" Name="ELEM_ID">1000 1001 1002 1003 1004 1005 1006 1007 1008 1009 3000 3001 3002 3003 3004 3005 3006 3007 3008 3009 4000 4001 4002 4003 4004 4005 4006 4007 4008 4009 4010 4011 4012 10001000 10001001 10001002 10001003 10001004 10001005 10001006 10001007 10001008 10001009 10003000 10003001 10003002 10003003 10003004 10003005 10003006 10003007 10003008 10003009 10004000 10004001 10004002 10004003 10004004 10004005 10004006 10004007 10004008 10004009 10004010 10004011 10004012 </DataArray>
      </CellData>
    </Piece>
  </UnstructuredGrid>
</VTKFile>
