<VTKFile byte_order="LittleEndian" type="UnstructuredGrid" version="0.1">
  <UnstructuredGrid>
    <Piece NumberOfCells="15908" NumberOfPoints="15942">
      <Points>
        <DataArray type="Float64" format="ascii" NumberOfComponents="3">20.12808 17.58315 1.844801 20.05812 17.69604 1.851864 17.29502 5.375e-08 2.21315 20.03326 17.60533 1.855145 20.00825 17.51465 1.858454 19.79283 17.46831 1.876853 19.88812 17.44614 1.870216 19.98319 17.42397 1.861781 20.07784 17.40182 1.851571 20.17216 17.37958 1.839583 19.28976 17.4876 1.875462 19.19434 17.50987 1.870278 19.23943 17.30639 1.881731 19.14408 17.32878 1.876546 19.2646 17.39702 1.87859 19.16921 17.41936 1.873405 19.57629 17.42194 1.885347 19.48073 17.44397 1.885771 19.52588 17.24072 1.89171 19.43038 17.26277 1.892034 19.55111 17.33132 1.888524 19.45557 17.35336 1.888898 19.38526 17.46574 1.880624 19.3601 17.37514 1.883751 19.3349 17.28455 1.886887 19.39039 17.84993 1.863047 19.29491 17.87188 1.857866 19.34005 17.66878 1.869234 19.24458 17.6909 1.86405 19.36519 17.75936 1.866135 19.26971 17.7814 1.860951 19.67667 17.78444 1.872741 19.58119 17.80643 1.87336 19.62654 17.60321 1.879023 19.53096 17.62522 1.879545 19.65164 17.69383 1.875877 19.55607 17.71583 1.876447 19.4858 17.82813 1.868211 19.46065 17.73754 1.871299 19.43553 17.64694 1.874397 19.21948 17.60038 1.86716 19.31492 17.57818 1.872344 19.41042 17.55633 1.877507 19.50586 17.53459 1.882654 19.60144 17.51257 1.88218 19.6215 17.21864 1.891386 19.6467 17.30926 1.888149 19.67188 17.39991 1.884922 19.69701 17.49055 1.881707 19.72211 17.5812 1.878502 19.74723 17.67183 1.875306 19.77234 17.76241 1.87212 19.11887 17.23802 1.879703 19.21418 17.21566 1.884884 19.30973 17.19396 1.890036 15.73827 2.006108 2.347442 19.40516 17.17222 1.895177 19.50054 17.15017 1.894899 19.59665 17.12795 1.894618 19.69199 17.10577 1.889947 15.73774 1.335677 2.35068 19.78719 17.08356 1.883502 19.88211 17.06137 1.87529 19.97677 17.03929 1.86531 20.07092 17.0168 1.853598 20.27136 17.7426 1.825944 20.17746 17.76471 1.839044 20.08304 17.78682 1.849909 19.98819 17.8089 1.8585 19.893 17.83097 1.864787 19.79759 17.85304 1.868746 19.70204 17.87507 1.870366 19.60644 17.89695 1.86965 19.5109 17.9188 1.866598 19.41554 17.94057 1.861229 19.32043 17.96225 1.853567 19.20044 17.89325 1.844328 19.17536 17.80291 1.847403 19.15026 17.71258 1.850483 19.12524 17.62222 1.853583 19.10014 17.53188 1.856681 19.07509 17.44153 1.859795 19.05003 17.35118 1.862918 20.28996 17.06511 1.820199 20.30824 17.15697 1.817766 20.32649 17.24884 1.815343 20.34475 17.3407 1.812923 20.36299 17.43256 1.810509 20.38124 17.52443 1.808098 20.39947 17.61629 1.805692 20.36688 17.72001 1.810266 20.34203 17.62942 1.81516 20.31675 17.53881 1.818709 20.29146 17.44822 1.822261 20.26617 17.35762 1.825818 20.24087 17.26701 1.829381 20.21556 17.17641 1.83295 20.19025 17.08581 1.836527 20.14227 16.32562 1.840111 20.16078 16.41814 1.837582 17.29599 2.006074 2.209903 20.17928 16.51066 1.835065 20.19777 16.60318 1.832561 20.21623 16.69571 1.830072 20.23468 16.78823 1.827592 20.25312 16.88075 1.82512 20.16493 16.99521 1.840111 18.68757 15.69161 1.935362 18.66054 15.59467 1.938996 18.60637 15.40069 1.946326 18.63345 15.49768 1.942651 18.55216 15.20671 1.953737 18.49792 15.01273 1.961235 18.52506 15.10972 1.957475 18.57928 15.3037 1.950021 18.59364 15.71156 1.921513 18.56594 15.61204 1.925222 18.53811 15.51254 1.928935 18.51032 15.41304 1.932676 18.48254 15.31352 1.936439 18.45469 15.21402 1.940215 18.4269 15.11451 1.944023 18.39904 15.01501 1.947843 18.89176 16.42281 1.908552 18.84132 16.24163 1.91511 18.86656 16.33225 1.911824 18.79085 16.0604 1.921727 18.74032 15.87911 1.928407 18.76559 15.96978 1.925057 18.81608 16.15102 1.91841 18.91694 16.51318 1.905303 15.73491 5.383e-08 2.355353 18.79818 16.44533 1.894779 18.77299 16.35471 1.898038 18.74772 16.26411 1.901297 17.29741 1.335452 2.210469 18.72245 16.17351 1.904572 18.69726 16.08288 1.907873 18.67197 15.99228 1.911175 18.64673 15.90166 1.914502 18.71502 15.78824 1.93178 19.08206 16.3785 1.91889 19.03153 16.19726 1.925457 19.0568 16.28788 1.922166 17.88664 5.014102 2.124885 18.98097 16.01602 1.932086 18.93037 15.83478 1.93878 18.95567 15.9254 1.935426 19.00625 16.10664 1.928764 19.10732 16.46912 1.915627 18.0184 5.682015 2.107526 19.01189 16.49086 1.910472 18.98668 16.40024 1.913734 18.96146 16.30961 1.917011 18.93624 16.21898 1.920301 18.91101 16.12836 1.923607 18.88577 16.03774 1.926927 18.86053 15.94711 1.930264 17.42164 2.644092 2.187441 18.83527 15.85649 1.933615 18.87956 15.66406 1.94501 18.85727 15.58333 1.948053 18.8103 15.40315 1.955016 18.83677 15.49762 1.951436 18.75587 15.20868 1.962456 18.70111 15.01315 1.970028 18.72849 15.11092 1.96623 18.78323 15.30643 1.958706 18.90506 15.74417 1.94215 18.81001 15.76587 1.936983 18.78366 15.67137 1.940513 18.7573 15.57688 1.944061 18.73093 15.48239 1.947628 18.70455 15.38789 1.951214 18.67816 15.2934 1.95482 18.65176 15.19891 1.958447 18.62535 15.10441 1.962095 18.59893 15.00992 1.965764 19.16293 15.58306 1.952188 19.06704 15.60237 1.951638 19.10953 15.39238 1.959597 19.01207 15.40614 1.959153 19.13623 15.48773 1.955887 19.03955 15.50426 1.955386 19.0561 15.20166 1.967045 18.95708 15.20989 1.966735 19.0026 15.01095 1.974506 18.90195 15.01364 1.974373 19.02937 15.1063 1.970776 18.92953 15.11176 1.970547 19.08282 15.29702 1.963317 18.98458 15.30801 1.962936 18.97185 15.62153 1.95109 18.9436 15.52067 1.954889 18.91534 15.41979 1.958711 18.88706 15.31892 1.962557 18.85878 15.21805 1.966426 18.83048 15.11718 1.97032 18.80217 15.01631 1.97424 19.36743 16.31266 1.924453 19.27237 16.3347 1.924246 19.31684 16.13141 1.931228 19.22177 16.15346 1.930918 19.34214 16.22204 1.927831 19.24708 16.24408 1.927574 19.26622 15.95016 1.938077 19.17113 15.97222 1.93766 19.21558 15.76891 1.944998 19.12046 15.79098 1.944469 19.2409 15.85953 1.941529 19.1458 15.8816 1.941056 19.29153 16.04078 1.934643 15.93077 2.966897 2.322456 19.19646 16.06284 1.93428 19.39301 16.40323 1.92108 19.29756 16.42535 1.920927 19.20272 16.44733 1.920776 19.17742 16.35671 1.924039 19.15211 16.2661 1.927316 19.12679 16.17548 1.930609 19.10147 16.08487 1.933917 19.07613 15.99425 1.937241 19.05079 15.90364 1.940582 19.02544 15.81302 1.943939 19.00008 15.7224 1.947314 19.095 15.7004 1.947891 19.19052 15.67825 1.948473 19.65275 16.24611 1.906471 19.55781 16.26831 1.914201 19.60199 16.06485 1.913482 19.50713 16.08704 1.921114 19.62737 16.15548 1.909972 19.53247 16.17767 1.917652 19.55121 15.88358 1.920532 19.45643 15.90577 1.928075 19.5004 15.70231 1.927643 19.4057 15.7245 1.9351 19.52581 15.79294 1.924078 19.43107 15.81514 1.931578 19.5766 15.97421 1.917 19.48178 15.99641 1.924587 19.67811 16.33675 1.902981 19.58314 16.35894 1.910761 19.48789 16.38115 1.916802 19.46262 16.29051 1.920198 19.43733 16.19987 1.923608 19.41204 16.10924 1.92703 19.38674 16.0186 1.930468 19.36143 15.92797 1.933923 19.33611 15.83733 1.937394 19.31078 15.7467 1.940883 19.44854 15.51639 1.934996 19.3543 15.53981 1.942319 19.39511 15.32591 1.94267 19.30171 15.35191 1.949789 19.42184 15.42114 1.938816 19.32798 15.44582 1.946042 19.34044 15.13117 1.950665 19.24981 15.16583 1.957292 19.1981 14.99876 1.964499 19.30378 15.02566 1.955682 19.22119 15.08141 1.961097 19.36823 15.22982 1.946586 19.27555 15.2581 1.953555 19.47496 15.61167 1.93123 19.38033 15.63387 1.938642 19.28544 15.65606 1.944392 19.25956 15.56351 1.947996 19.23367 15.47096 1.951621 19.20777 15.37841 1.955267 19.18186 15.28586 1.958936 19.15593 15.1933 1.962626 19.13 15.10075 1.966337 16.0866 3.760257 2.303628 19.10407 15.0082 1.970068 19.72935 15.44365 1.90333 19.63629 15.46984 1.915607 19.5841 15.28503 1.923685 19.70004 15.33955 1.907857 19.60921 15.37392 1.91979 19.63794 15.11918 1.917517 19.53461 15.10993 1.93141 19.60894 15.01631 1.922065 19.50742 15.0138 1.935682 19.66883 15.22876 1.9127 19.55955 15.19818 1.927507 19.54227 15.49319 1.926088 19.51521 15.39691 1.930039 19.48813 15.30062 1.93401 19.46104 15.20433 1.938003 19.43394 15.10805 1.942018 19.40683 15.01176 1.946056 19.93605 16.17946 1.87289 19.84203 16.20165 1.885796 19.88511 15.99814 1.880289 19.79102 16.0204 1.893064 19.91054 16.08881 1.87659 19.81647 16.11104 1.889433 19.83422 15.81677 1.887719 19.74016 15.83914 1.900349 19.78329 15.63539 1.895196 19.68925 15.65787 1.907688 19.80877 15.72608 1.891451 19.71471 15.74851 1.90401 19.85967 15.90745 1.883998 19.76559 15.92977 1.8967 19.96199 16.26993 1.869138 19.86759 16.2922 1.882167 19.7728 16.31455 1.893465 19.7474 16.22391 1.897014 19.72198 16.13328 1.900572 19.69656 16.04265 1.904138 19.67114 15.95202 1.907713 19.6457 15.86138 1.911301 19.62025 15.77075 1.914901 19.59479 15.68011 1.918519 19.56933 15.58948 1.922157 19.6638 15.56729 1.911379 19.75781 15.54476 1.898956 20.05511 16.24855 1.854536 20.02967 16.15772 1.858286 20.00423 16.06689 1.862049 19.97877 15.97607 1.865827 19.95331 15.88523 1.869618 19.92784 15.79441 1.873422 19.90236 15.70358 1.877237 19.87686 15.61274 1.881061 19.99439 15.58687 1.857836 16.24063 4.554873 2.2843 20.01289 15.67919 1.855664 20.03139 15.77151 1.853494 20.04988 15.86383 1.851324 20.06836 15.95615 1.849155 20.08684 16.04847 1.846987 20.10531 16.14078 1.844819 19.85136 15.52191 1.884894 19.82297 15.42084 1.88917 19.79456 15.31977 1.893456 19.76613 15.2187 1.897753 19.7377 15.11763 1.902058 19.70925 15.01656 1.906376 19.87898 15.01192 1.871376 19.89838 15.10845 1.869101 19.91776 15.20498 1.866827 19.93714 15.30151 1.864553 19.95651 15.39803 1.86228 18.45112 14.82153 1.966167 18.43191 14.72967 1.968741 18.40107 14.56575 1.973642 18.38033 14.48406 1.975699 18.41781 14.64564 1.971376 18.47132 14.9157 1.965042 18.3505 14.81536 1.957778 18.32954 14.71514 1.960592 18.30857 14.61492 1.963428 18.2875 14.51472 1.966275 18.34338 14.3031 1.980991 18.30445 14.1179 1.986396 18.32392 14.2105 1.983684 18.26549 13.93269 1.991871 18.246 13.84008 1.994634 18.28497 14.02529 1.989124 18.36283 14.39571 1.978315 18.24708 14.3219 1.971829 18.22763 14.2293 1.97452 18.20819 14.13669 1.977232 18.18871 
[...]
      <PointData>
        <DataArray type="Int32" NumberOfComponents="1" format="ascii" Name="GRID_ID">2000000 2000001 2000002 2000003 2000004 2000005 2000006 2000007 2000008 2000009 2000010 2000011 2000012 2000013 2000014 2000015 2000016 2000017 2000018 2000019 2000020 2000021 2000022 2000023 2000024 2000025 2000026 2000027 2000028 2000029 2000030 2000031 2000032 2000033 2000034 2000035 2000036 2000037 2000038 2000039 2000040 2000041 2000042 2000043 2000044 2000045 2000046 2000047 2000048 2000049 2000050 2000051 2000052 2000053 2000054 2000055 2000056 2000057 2000058 2000059 2000060 2000061 2000062 2000063 2000064 2000065 2000066 2000067 2000068 2000069 2000070 2000071 2000072 2000073 2000074 2000075 2000076 2000077 2000078 2000079 2000080 2000081 2000082 2000083 2000084 2000085 2000086 2000087 2000088 2000089 2000090 2000091 2000092 2000093 2000094 2000095 2000096 2000097 2000102 2000103 2000104 2000105 2000106 2000107 2000108 2000109 2000110 2000111 2000112 2000113 2000114 2000115 2000116 2000117 2000118 2000119 2000120 2000121 2000122 2000123 2000124 2000125 2000126 2000127 2000128 2000129 2000130 2000131 2000132 2000133 2000134 2000135 2000136 2000137 2000138 2000139 2000140 2000141 2000142 2000143 2000144 2000145 2000146 2000147 2000148 2000149 2000150 2000151 2000152 2000153 2000154 2000155 2000156 2000157 2000158 2000159 2000160 2000161 2000162 2000163 2000164 2000165 2000166 2000167 2000168 2000169 2000170 2000171 2000172 2000173 2000174 2000175 2000176 2000177 2000178 2000179 2000180 2000181 2000182 2000183 2000184 2000185 2000186 2000187 2000188 2000189 2000190 2000191 2000192 2000193 2000194 2000195 2000196 2000197 2000198 2000199 2000200 2000201 2000202 2000203 2000204 2000205 2000206 2000207 2000208 2000209 2000210 2000211 2000212 2000213 2000214 2000215 2000216 2000217 2000218 2000219 2000220 2000221 2000222 2000223 2000224 2000225 2000226 2000227 2000228 2000229 2000230 2000231 2000232 2000233 2000234 2000235 2000236 2000237 2000238 2000239 2000240 2000241 2000242 2000243 2000244 2000245 2000246 2000247 2000248 2000249 2000250 2000251 2000252 2000253 2000254 2000255 2000256 2000257 2000258 2000259 2000260 2000261 2000262 2000263 2000264 2000265 2000266 2000267 2000268 2000269 2000270 2000271 2000272 2000273 2000274 2000275 2000276 2000277 2000278 2000279 2000280 2000281 2000282 2000283 2000284 2000285 2000286 2000287 2000288 2000289 2000290 2000291 2000292 2000293 2000294 2000295 2000296 2000297 2000298 2000299 2000300 2000301 2000302 2000303 2000304 2000305 2000306 2000307 2000308 2000309 2000310 2000311 2000312 2000313 2000314 2000315 2000316 2000317 2000318 2000319 2000320 2000321 2000322 2000323 2000324 2000325 2000326 2000327 2000328 2000329 2000330 2000331 2000332 2000333 2000334 2000335 2000336 2000337 2000338 2000342 2000343 2000344 2000345 2000346 2000347 2000348 2000349 2000350 2000351 2000352 2000353 2000354 2000355 2000356 2000357 2000358 2000359 2000360 2000361 2000362 2000363 2000364 2000365 2000366 2000367 2000368 2000369 2000370 2000371 2000372 2000373 2000374 2000375 2000376 2000377 2000378 2000379 2000380 2000381 2000382 2000383 2000384 2000385 2000386 2000387 2000388 2000389 2000390 2000391 2000392 2000393 2000394 2000395 2000396 2000397 2000398 2000399 2000400 2000401 2000402 2000403 2000404 2000405 2000406 2000407 2000408 2000409 2000410 2000411 2000412 2000413 2000414 2000415 2000416 2000417 2000418 2000419 2000420 2000421 2000422 2000423 2000424 2000425 2000426 2000427 2000428 2000429 2000430 2000431 2000432 2000433 2000434 2000435 2000436 2000437 2000438 2000439 2000440 2000441 2000442 2000443 2000444 2000445 2000446 2000447 2000448 2000449 2000450 2000451 2000452 2000453 2000454 2000455 2000456 2000457 2000458 2000459 2000460 2000461 2000462 2000463 2000464 2000465 2000466 2000467 2000468 2000469 2000470 2000471 2000472 2000473 2000474 2000475 2000476 2000477 2000478 2000479 2000480 2000481 2000482 2000483 2000484 2000485 2000486 2000487 2000488 2000489 2000490 2000491 2000492 2000493 2000494 2000495 2000496 2000497 2000498 2000499 2000500 2000501 2000502 2000503 2000504 2000505 2000506 2000507 2000508 2000509 2000510 2000511 2000512 2000513 2000514 2000515 2000516 2000517 2000518 2000519 2000520 2000521 2000522 2000523 2000524 2000525 2000526 2000527 2000528 2000529 2000530 2000531 2000532 2000533 2000534 2000535 2000536 2000537 2000538 2000539 2000540 2000541 2000542 2000543 2000544 2000545 2000546 2000547 2000548 2000549 2000550 2000551 2000552 2000553 2000554 2000555 2000556 2000557 2000558 2000559 2000560 2000561 2000562 2000563 2000564 2000565 2000566 2000567 2000568 2000569 2000570 2000571 2000572 2000573 2000574 2000575 2000576 2000577 2000578 2000579 2000580 2000581 2000582 2000583 2000584 2000585 2000586 2000587 2000588 2000589 2000590 2000591 2000592 2000593 2000594 2000595 2000596 2000597 2000598 2000599 2000600 2000601 2000602 2000603 2000604 2000605 2000606 2000607 2000608 2000609 2000610 2000611 2000612 2000613 2000614 2000615 2000616 2000617 2000618 2000619 2000620 2000621 2000622 2000623 2000624 2000625 2000626 2000627 2000628 2000629 2000630 2000631 2000632 2000633 2000634 2000635 2000636 2000637 2000638 2000639 2000640 2000641 2000642 2000643 2000644 2000645 2000646 2000647 2000648 2000649 2000650 2000651 2000652 2000653 2000654 2000655 2000656 2000657 2000658 2000659 2000660 2000661 2000662 2000663 2000664 2000665 2000666 2000667 2000668 2000669 2000670 2000671 2000672 2000673 2000674 2000675 2000676 2000677 2000678 2000679 2000680 2000681 2000682 2000683 2000684 2000685 2000686 2000687 2000688 2000689 2000690 2000691 2000692 2000693 2000694 2000695 2000696 2000697 2000698 2000699 2000700 2000701 2000702 2000703 2000704 2000705 2000706 2000707 2000708 2000709 2000710 2000711 2000712 2000713 2000714 2000715 2000716 2000717 2000718 2000719 2000720 2000721 2000722 2000723 2000724 2000725 2000726 2000727 2000728 2000729 2000730 2000731 2000732 2000733 2000734 2000735 2000736 2000737 2000738 2000739 2000740 2000741 2000742 2000743 2000744 2000745 2000746 2000747 2000748 2000749 2000750 2000751 2000752 2000753 2000754 2000755 2000756 2000757 2000758 2000759 2000760 2000761 2000762 2000763 2000764 2000765 2000766 2000767 2000768 2000769 2000770 2000771 2000772 2000773 2000774 2000775 2000776 2000777 2000778 2000779 2000780 2000781 2000782 2000783 2000784 2000785 2000786 2000787 2000788 2000789 2000790 2000791 2000792 2000793 2000794 2000795 2000796 2000797 2000798 2000799 2000800 2000801 2000802 2000803 2000804 2000805 2000806 2000807 2000808 2000809 2000810 2000811 2000812 2000813 2000814 2000815 2000816 2000817 2000818 2000819 2000820 2000821 2000822 2000823 2000824 2000825 2000826 2000827 2000828 2000829 2000830 2000831 2000832 2000833 2000834 2000835 2000836 2000837 2000838 2000839 2000840 2000841 2000842 2000843 2000844 2000845 2000846 2000847 2000848 2000849 2000850 2000851 2000852 2000853 2000854 2000855 2000856 2000857 2000858 2000859 2000860 2000861 2000862 2000863 2000864 2000865 2000866 2000867 2000868 2000869 2000870 2000871 2000872 2000873 2000874 2000875 2000876 2000877 2000878 2000879 2000880 2000881 2000882 2000883 2000884 2000885 2000886 2000887 2000888 2000889 2000890 2000891 2000892 2000893 2000894 2000895 2000896 2000897 2000898 2000899 2000900 2000901 2000902 2000903 2000904 2000905 2000906 2000907 2000908 2000909 2000910 2000911 2000912 2000913 2000914 2000915 2000916 2000917 2000918 2000919 2000920 2000921 2000922 2000923 2000924 2000925 2000926 2000927 2000928 2000929 2000930 2000931 2000932 2000933 2000934 2000935 2000936 2000937 2000938 2000939 2000940 2000941 2000942 2000943 2000944 2000945 2000946 2000947 2000948 2000949 2000950 2000951 2000952 2000953 2000954 2000955 2000956 2000957 2000958 2000959 2000960 2000961 2000962 2000963 2000964 2000965 2000966 2000967 2000968 2000969 2000970 2000971 2000972 2000973 2000974 2000975 2000976 2000977 2000978 2000979 2000980 2000981 2000982 2000983 2000984 2000985 2000986 2000987 2000988 2000989 2000990 2000991 2000992 2000993 2000994 2000995 2000996 2000997 2000998 2000999 2001000 2001001 2001002 2001003 2001004 2001005 2001006 2001007 2001008 2001009 2001010 2001011 2001012 2001013 2001014 2001015 2001016 2001017 2001018 2001019 2001020 2001021 2001022 2001023 2001024 2001025 2001026 2001027 2001028 2001029 2001030 2001031 2001032 2001033 2001034 2001035 2001036 2001037 2001038 2001039 2001040 2001041 2001042 2001043 2001044 2001045 2001046 2001047 2001048 2001049 2001050 2001051 2001052 2001053 2001054 2001055 2001056 2001057 2001058 2001059 2001060 2001061 2001062 2001063 2001064 2001065 2001066 2001067 2001068 2001069 2001070 2001071 2001072 2001073 2001074 2001075 2001076 2001077 2001078 2001079 2001080 2001081 2001082 2001083 2001084 2001085 2001086 2001087 2001088 2001089 2001090 2001091 2001092 2001093 2001094 2001095 2001096 2001097 2001098 2001099 2001100 2001101 2001102 2001103 2001104 2001105 2001106 2001107 2001108 2001109 2001110 2001111 2001112 2001113 2001114 2001115 2001116 2001117 2001118 2001119 2001120 2001121 2001122 2001123 2001124 2001125 2001126 2001127 2001128 2001129 2001130 2001131 2001132 2001133 2001134 2001135 2001136 2001137 2001138 2001139 2001140 2001141 2001142 2001143 2001144 2001145 2001146 2001147 2001148 2001149 2001150 2001151 2001152 2001153 2001154 2001155 2001156 2001157 2001158 2001159 2001160 2001161 2001162 2001163 2001164 2001165 2001166 2001167 2001168 2001169 2001170 2001171 2001172 2001173 2001174 2001175 2001176 2001177 2001178 2001179 2001180 2001181 2001182 2001183 2001184 2001185 2001186 2001187 2001188 2001189 2001190 2001191 2001192 2001193 2001194 2001195 2001196 2001197 2001198 2001199 2001200 2001201 2001202 2001203 2001204 2001205 2001206 2001207 2001208 2001209 2001210 2001211 2001212 2001213 2001214 2001215 2001216 2001217 2001218 2001219 2001220 2001221 2001222 2001223 2001224 2001225 2001226 2001227 2001228 2001229 2001230 2001231 2001232 2001233 2001234 2001235 2001236 2001237 2001238 2001239 2001240 2001241 2001242 2001243 2001244 2001245 2001246 2001247 2001248 2001249 2001250 2001251 2001252 2001253 2001254 2001255 2001256 2001257 2001258 2001259 2001260 2001261 2001262 2001263 2001264 2001265 2001266 2001267 2001268 2001269 2001270 2001271 2001272 2001273 2001274 2001275 2001276 2001277 2001278 2001279 2001280 2001281 2001282 2001283 2001284 2001285 2001286 2001287 2001288 2001289 2001290 2001291 2001292 2001293 2001294 2001295 2001296 2001297 2001298 2001299 2001300 2001301 2001302 2001303 2001304 2001305 2001306 2001307 2001308 2001309 2001310 2001311 2001312 2001313 2001314 2001315 2001316 2001317 2001318 2001319 2001320 2001321 2001322 2001323 2001324 2001325 2001326 2001327 2001328 2001329 2001330 2001331 2001332 2001333 2001334 2001335 2001336 2001337 2001338 2001339 2001340 2001341 2001342 2001343 2001344 2001345 2001346 2001347 2001348 2001349 2001350 2001351 2001352 2001353 2001354 2001355 2001356 2001357 2001358 2001359 2001360 2001361 2001362 2001363 2001364 2001365 2001366 2001367 2001368 2001369 2001370 2001371 2001372 2001373 2001374 2001375 2001376 2001377 2001378 2001379 2001380 2001381 2001382 2001383 2001384 2001385 2001386 2001387 2001388 2001389 2001390 2001391 2001392 2001393 2001394 2001395 2001396 2001397 2001398 2001399 2001400 2001401 2001402 2001403 2001404 2001405 2001406 2001407 2001408 2001409 2001410 2001411 2001412 2001413 2001414 2001415 2001416 2001417 2001418 2001419 2001420 2001421 2001422 2001423 2001424 2001425 2001426 2001427 2001428 2001429 2001430 2001431 2001432 2001433 2001434 2001435 2001436 2001437 2001438 2001439 2001440 2001441 2001442 2001443 2001444 2001445 2001446 2001447 2001448 2001449 2001450 2001451 2001452 2001453 2001454 2001455 2001456 2001457 2001458 2001459 2001460 2001461 2001462 2001463 2001464 2001465 2001466 2001467 2001468 2001469 2001470 2001471 2001472 2001473 2001474 2001475 2001476 2001477 2001478 2001479 2001480 2001481 2001482 2001483 2001484 2001485 2001486 2001487 2001488 2001489 2001490 2001491 2001492 2001493 2001494 2001495 2001496 2001497 2001498 2001499 2001500 2001501 2001502 2001503 2001504 2001505 2001506 2001507 2001508 2001509 2001510 2001511 2001512 2001513 2001514 2001515 2001516 2001517 2001518 2001519 2001520 2001521 2001522 2001523 2001524 2001525 2001526 2001527 2001528 2001529 2001530 2001531 2001532 2001533 2001534 2001535 2001536 2001537 2001538 2001539 2001540 2001541 2001542 2001543 2001544 2001545 2001546 2001547 2001548 2001549 2001550 2001551 2001552 2001553 2001554 2001555 2001556 2001557 2001558 2001559 2001560 2001561 2001562 2001563 2001564 2001565 2001566 2001567 2001568 2001569 2001570 2001571 2001572 2001573 2001574 2001575 2001576 2001577 2001578 2001579 2001580 2001581 2001582 2001583 2001584 2001585 2001586 2001587 2001588 2001589 2001590 2001591 2001592 2001593 2001594 2001595 2001596 2001597 2001598 2001599 2001600 2001601 2001602 2001603 2001604 2001605 2001606 2001607 2001608 2001609 2001610 2001611 2001612 2001613 2001614 2001615 2001616 2001617 2001618 2001619 2001620 2001621 2001622 2001623 2001624 2001625 2001626 2001627 2001628 2001629 2001630 2001631 2001632 2001633 2001634 2001635 2001636 2001637 2001638 2001639 2001640 2001641 2001642 2001643 2001644 2001645 2001646 2001647 2001648 2001649 2001650 2001651 2001652 2001653 2001654 2001655 2001656 2001657 2001658 2001659 2001660 2001661 2001662 2001663 2001664 2001665 2001666 2001667 2001668 2001669 2001670 2001671 2001672 2001673 2001674 2001675 2001676 2001677 2001678 2001679 2001680 2001681 2001682 2001683 2001684 2001685 2001686 2001687 2001688 2001689 2001690 2001691 2001692 2001693 2001694 2001695 2001696 2001697 2001698 2001699 2001700 2001701 2001702 2001703 2001704 2001705 2001706 2001707 2001708 2001709 2001710 2001711 2001712 2001713 2001714 2001715 2001716 2001717 2001718 2001719 2001720 2001721 2001722 2001723 2001724 2001725 2001726 2001727 2001728 2001729 2001730 2001731 2001732 2001733 2001734 2001735 2001736 2001737 2001738 2001739 2001740 2001741 2001742 2001743 2001744 2001745 2001746 2001747 2001748 2001749 2001750 2001751 2001752 2001753 2001754 2001755 2001756 2001757 2001758 2001759 2001760 2001761 2001762 2001763 2001764 2001765 2001766 2001767 2001768 2001769 2001770 2001771 2001772 2001773 2001774 2001775 2001776 2001777 2001778 2001779 2001780 2001781 2001782 2001783 2001784 2001785 2001786 2001787 2001788 2001789 2001790 2001791 2001792 2001793 2001794 2001795 2001796 2001797 2001798 2001799 2001800 2001801 2001802 2001803 2001804 2001805 2001806 2001807 2001808 2001809 2001810 2001811 2001812 2001813 2001814 2001815 2001816 2001817 2001818 2001819 2001820 2001821 2001822 2001823 2001824 2001825 2001826 2001827 2001828 2001829 2001830 2001831 2001832 2001833 2001834 2001835 2001836 2001837 2001838 2001839 2001840 2001841 2001842 2001843 2001844 2001845 2001846 2001847 2001848 2001849 2001850 2001851 2001852 2001853 2001854 2001855 2001856 2001857 2001858 2001859 2001860 2001861 2001862 2001863 2001864 2001865 2001866 2001867 2001868 2001869 2001870 2001871 2001872 2001873 2001874 2001875 2001876 2001877 2001878 2001879 2001880 2001881 2001882 2001883 2001884 2001885 2001886 2001887 2001888 2001889 2001890 2001891 2001892 2001893 2001894 2001895 2001896 2001897 2001898 2001899 2001900 2001901 2001902 2001903 2001904 2001905 2001906 2001907 2001908 2001909 2001910 2001911 2001912 2001913 2001914 2001915 2001916 2001917 2001918 2001919 2001920 2001921 2001922 2001923 2001924 2001925 2001926 2001927 2001928 2001929 2001930 2001931 2001932 2001933 2001934 2001935 2001936 2001937 2001938 2001939 2001940 2001941 2001942 2001943 2001944 2001945 2001946 2001947 2001948 2001949 2001950 2001951 2001952 2001953 2001954 2001955 2001956 2001957 2001958 2001959 2001960 2001961 2001962 2001963 2001964 2001965 2001966 2001967 2001968 2001969 2001970 2001971 2001972 2001973 2001974 2001975 2001976 2001977 2001978 2001979 2001980 2001981 2001982 2001983 2001984 2001985 2001986 2001987 2001988 2001989 2001990 2001991 2001992 2001993 2001994 2001995 2001996 2001997 2001998 2001999 2002000 2002001 2002002 2002003 2002004 2002005 2002006 2002007 2002008 2002009 2002010 2002011 2002012 2002013 2002014 2002015 2002016 2002017 2002018 2002019 2002020 2002021 2002022 2002023 2002024 2002025 2002026 2002027 2002028 2002029 2002030 2002031 2002032 2002033 2002034 2002035 2002036 2002040 2002041 2002042 2002043 2002044 2002045 2002046 2002047 2002048 2002049 2002050 2002051 2002052 2002053 2002054 2002055 2002056 2002057 2002058 2002059 2002060 2002061 2002062 2002063 2002064 2002065 2002066 2002067 2002068 2002069 2002070 2002071 2002072 2002073 2002074 2002075 2002076 2002077 2002078 2002079 2002080 2002081 2002082 2002083 2002084 2002085 2002086 2002087 2002088 2002089 2002090 2002091 2002092 2002093 2002094 2002095 2002096 2002097 2002098 2002099 2002100 2002101 2002102 2002103 2002104 2002105 2002106 2002107 2002108 2002109 2002110 2002111 2002112 2002113 2002114 2002115 2002116 2002117 2002118 2002119 2002120 2002121 2002122 2002123 2002124 2002125 2002126 2002127 2002128 2002129 2002130 2002131 2002132 2002133 2002134 2002135 2002136 2002137 2002138 2002139 2002140 2002141 2002142 2002143 2002144 2002145 2002146 2002147 2002148 2002149 2002150 2002151 2002152 2002153 2002154 2002155 2002156 2002157 2002158 2002159 2002160 2002161 2002162 2002163 2002164 2002165 2002166 2002167 2002168 2002169 2002170 2002171 2002172 2002173 2002174 2002175 2002176 2002177 2002178 2002179 2002180 2002181 2002182 2002183 2002184 2002185 2002186 2002187 2002188 2002189 2002190 2002191 2002192 2002193 2002194 2002195 2002196 2002197 2002198 2002199 2002200 2002201 2002202 2002203 2002204 2002205 2002206 2002207 2002208 2002209 2002210 2002211 2002212 2002213 2002214 2002215 2002216 2002217 2002218 2002219 2002220 2002221 2002222 2002223 2002224 2002225 2002226 2002227 2002228 2002229 2002230 2002231 2002232 2002233 2002234 2002235 2002236 2002237 2002238 2002239 2002240 2002241 2002242 2002243 2002244 2002245 2002246 2002247 2002248 2002249 2002250 2002251 2002252 2002253 2002254 2002255 2002256 2002257 2002258 2002259 2002260 2002261 2002262 2002263 2002264 2002265 2002266 2002267 2002268 2002269 2002270 2002271 2002272 2002273 2002274 2002275 2002276 2002277 2002278 2002279 2002280 2002281 2002282 2002283 2002284 2002285 2002286 2002287 2002288 2002289 2002290 2002291 2002292 2002293 2002294 2002295 2002296 2002297 2002298 2002299 2002300 2002301 2002302 2002303 2002304 2002305 2002306 2002307 2002308 2002309 2002310 2002311 2002312 2002313 2002314 2002315 2002316 2002317 2002318 2002319 2002320 2002321 2002322 2002323 2002324 2002325 2002326 2002327 2002328 2002329 2002330 2002331 2002332 2002333 2002334 2002335 2002336 2002337 2002338 2002339 2002340 2002341 2002342 2002343 2002344 2002345 2002346 2002347 2002348 2002349 2002350 2002351 2002352 2002353 2002354 2002355 2002356 2002357 2002358 2002359 2002360 2002361 2002362 2002363 2002364 2002365 2002366 2002367 2002368 2002369 2002370 2002371 2002372 2002373 2002374 2002375 2002376 2002377 2002378 2002379 2002380 2002381 2002382 2002383 2002384 2002385 2002386 2002387 2002388 2002389 2002390 2002391 2002392 2002393 2002394 2002395 2002396 2002397 2002398 2002399 2002400 2002401 2002402 2002403 2002404 2002405 2002406 2002407 2002408 2002409 2002410 2002411 2002412 2002413 2002414 2002415 2002416 2002417 2002418 2002419 2002420 2002421 2002422 2002423 2002424 2002425 2002426 2002427 2002428 2002429 2002430 2002431 2002432 2002433 2002434 2002435 2002436 2002437 2002438 2002439 2002440 2002441 2002442 2002443 2002444 2002445 2002446 2002447 2002448 2002449 2002450 2002451 2002452 2002453 2002454 2002455 2002456 2002457 2002458 2002459 2002460 2002461 2002462 2002463 2002464 2002465 2002466 2002467 2002468 2002469 2002470 2002471 2002472 2002473 2002474 2002475 2002476 2002477 2002478 2002479 2002480 2002481 2002482 2002483 2002484 2002485 2002486 2002487 2002488 2002489 2002490 2002491 2002492 2002493 2002494 2002495 2002496 2