<VTKFile byte_order="LittleEndian" type="UnstructuredGrid" version="0.1">
  <UnstructuredGrid>
    <Piece NumberOfCells="424" NumberOfPoints="154">
      <Points>
        <DataArray type="Float64" format="ascii" NumberOfComponents="3">0.0 0.0 -0.6028 3.8062 0.0 0.0 7.6048 0.0 0.0 11.4071 0.0 0.0 15.6286 0.0 0.0 16.5335 0.0 0.0 22.8143 0.0 0.0 27.4511 0.0 0.0 30.419 0.0 0.2989 34.1749 0.0 0.6771 38.0238 0.0 1.0646 16.5335 0.0 2.11455 16.5335 1.00156 2.11455 16.5335 2.00312 2.11455 16.6244 2.45678 2.10285 16.7153 2.91045 2.09115 16.8062 3.36411 2.07944 16.8972 3.81777 2.06774 16.9881 4.27144 2.05604 17.079 4.7251 2.04434 17.1699 5.17876 2.03264 17.2676 5.6656 2.02122 17.3652 6.15243 2.0098 17.4629 6.63927 1.99839 17.5605 7.1261 1.98697 17.6582 7.61294 1.97556 17.7558 8.09977 1.96414 17.8535 8.58661 1.95273 17.9511 9.07344 1.94131 18.0488 9.56028 1.92989 18.1464 10.0471 1.91848 18.2441 10.5339 1.90706 18.3417 11.0208 1.89565 18.4394 11.5076 1.88423 18.537 11.9945 1.87282 18.6347 12.4813 1.8614 18.7323 12.9681 1.84999 18.83 13.455 1.83857 18.9277 13.9418 1.82715 19.0253 14.4286 1.81574 19.123 14.9155 1.80432 19.2359 15.3927 1.79321 19.3488 15.87 1.7821 19.4617 16.3472 1.771 19.5747 16.8245 1.75989 19.6876 17.3018 1.74878 19.8005 17.779 1.73767 19.9134 18.2563 1.72656 20.0263 18.7335 1.71545 20.1393 19.2108 1.70434 20.2522 19.6881 1.69323 20.3651 20.1653 1.68212 20.478 20.6426 1.67102 20.591 21.1198 1.65991 20.7039 21.5971 1.6488 20.8168 22.0744 1.63769 20.9297 22.5516 1.62658 21.0427 23.0289 1.61547 21.1556 23.5061 1.60436 21.2685 23.9834 1.59325 21.3814 24.4607 1.58214 21.4944 24.9379 1.57104 21.6073 25.4152 1.55993 21.7202 25.8924 1.54882 34.1749 0.0 1.2687 34.6321 0.0 1.7946 35.0892 0.0 2.3205 35.5464 0.0 2.8464 36.0036 0.0 3.3723 36.4607 0.0 3.8982 36.9003 0.0 4.4039 37.3398 0.0 4.9095 37.7793 0.0 5.4151 38.2189 0.0 5.9207 38.7465 0.0 6.5277 38.3537 0.0 5.9207 38.3537 0.1261 5.9207 38.3537 0.2522 5.9207 38.5245 0.7876 5.8927 38.6953 1.323 5.8646 38.8661 1.8583 5.8366 39.037 2.3937 5.8085 39.2078 2.9291 5.7805 39.3635 3.4172 5.7549 39.5193 3.9053 5.7293 39.675 4.3934 5.7037 39.8308 4.8816 5.6781 39.9865 5.3697 5.6525 40.1423 5.8578 5.627 16.5335 -1.00156 2.11455 16.5335 -2.00312 2.11455 16.6244 -2.45678 2.10285 16.7153 -2.91045 2.09115 16.8062 -3.36411 2.07944 16.8972 -3.81777 2.06774 16.9881 -4.27144 2.05604 17.079 -4.7251 2.04434 17.1699 -5.17876 2.03264 17.2676 -5.6656 2.02122 17.3652 -6.15243 2.0098 17.4629 -6.63927 1.99839 17.5605 -7.1261 1.98697 17.6582 -7.61294 1.97556 17.7558 -8.09977 1.96414 17.8535 -8.58661 1.95273 17.9511 -9.07344 1.94131 18.0488 -9.56028 1.92989 18.1464 -10.0471 1.91848 18.2441 -10.5339 1.90706 18.3417 -11.0208 1.89565 18.4394 -11.5076 1.88423 18.537 -11.9945 1.87282 18.6347 -12.4813 1.8614 18.7323 -12.9681 1.84999 18.83 -13.455 1.83857 18.9277 -13.9418 1.82715 19.0253 -14.4286 1.81574 19.123 -14.9155 1.80432 19.2359 -15.3927 1.79321 19.3488 -15.87 1.7821 19.4617 -16.3472 1.771 19.5747 -16.8245 1.75989 19.6876 -17.3018 1.74878 19.8005 -17.779 1.73767 19.9134 -18.2563 1.72656 20.0263 -18.7335 1.71545 20.1393 -19.2108 1.70434 20.2522 -19.6881 1.69323 20.3651 -20.1653 1.68212 20.478 -20.6426 1.67102 20.591 -21.1198 1.65991 20.7039 -21.5971 1.6488 20.8168 -22.0744 1.63769 20.9297 -22.5516 1.62658 21.0427 -23.0289 1.61547 21.1556 -23.5061 1.60436 21.2685 -23.9834 1.59325 21.3814 -24.4607 1.58214 21.4944 -24.9379 1.57104 21.6073 -25.4152 1.55993 21.7202 -25.8924 1.54882 38.3537 -0.1261 5.9207 38.3537 -0.2522 5.9207 38.5245 -0.7876 5.8927 38.6953 -1.323 5.8646 38.8661 -1.8583 5.8366 39.037 -2.3937 5.8085 39.2078 -2.9291 5.7805 39.3635 -3.4172 5.7549 39.5193 -3.9053 5.7293 39.675 -4.3934 5.7037 39.8308 -4.8816 5.6781 39.9865 -5.3697 5.6525 40.1423 -5.8578 5.627 </DataArray>
      </Points>
      <PointData>
        <DataArray type="Int32" NumberOfComponents="1" format="ascii" Name="GRID_ID">1000 1001 1002 1003 1004 1005 1006 1007 1008 1009 1010 2000 2001 2002 2003 2004 2005 2006 2007 2008 2009 2010 2011 2012 2013 2014 2015 2016 2017 2018 2019 2020 2021 2022 2023 2024 2025 2026 2027 2028 2029 2030 2031 2032 2033 2034 2035 2036 2037 2038 2039 2040 2041 2042 2043 2044 2045 2046 2047 2048 2049 2050 2051 2052 3000 3001 3002 3003 3004 3005 3006 3007 3008 3009 3010 4000 4001 4002 4003 4004 4005 4006 4007 4008 4009 4010 4011 4012 4013 10002001 10002002 10002003 10002004 10002005 10002006 10002007 10002008 10002009 10002010 10002011 10002012 10002013 10002014 10002015 10002016 10002017 10002018 10002019 10002020 10002021 10002022 10002023 10002024 10002025 10002026 10002027 10002028 10002029 10002030 10002031 10002032 10002033 10002034 10002035 10002036 10002037 10002038 10002039 10002040 10002041 10002042 10002043 10002044 10002045 10002046 10002047 10002048 10002049 10002050 10002051 10002052 10004001 10004002 10004003 10004004 10004005 10004006 10004007 10004008 10004009 10004010 10004011 10004012 10004013 </DataArray>
      </PointData>
      <Cells>
        <DataArray type="Int32" format="ascii" Name="connectivity">0 1 2 3 4 5 6 7 8 9 10 11 11 12 12 13 13 14 14 15 15 16 16 17 17 18 18 19 19 20 20 21 21 22 22 23 23 24 24 25 25 26 26 27 27 28 28 29 29 30 30 31 31 32 32 33 33 34 34 35 35 36 36 37 37 38 38 39 39 40 40 41 41 42 42 43 43 44 44 45 45 46 46 47 47 48 48 49 49 50 50 51 51 52 52 53 53 54 54 55 55 56 56 57 57 58 58 59 59 60 60 61 61 62 62 63 63 64 64 65 65 66 66 67 67 68 68 69 69 70 70 71 71 72 72 73 73 74 74 75 75 76 76 77 77 78 78 79 79 80 80 81 81 82 82 83 83 84 84 85 85 86 86 87 87 88 88 21 5 5 1 2 3 4 5 6 7 8 13 14 15 16 17 18 19 20 21 22 23 24 25 26 27 28 29 30 31 32 33 34 35 36 37 38 39 40 41 42 43 11 12 13 0 1 2 3 4 5 6 7 8 9 10 11 11 89 89 90 90 91 91 92 92 93 93 94 94 95 95 96 96 97 97 98 98 99 99 100 100 101 101 102 102 103 103 104 104 105 105 106 106 107 107 108 108 109 109 110 110 111 111 112 112 113 113 114 114 115 115 116 116 117 117 118 118 119 119 120 120 121 121 122 122 123 123 124 124 125 125 126 126 127 127 128 128 129 129 130 130 131 131 132 132 133 133 134 134 135 135 136 136 137 137 138 138 139 139 140 140 64 64 65 65 66 66 67 67 68 68 69 69 70 70 71 71 72 72 73 73 74 74 75 75 141 141 142 142 143 143 144 144 145 145 146 146 147 147 148 148 149 149 150 150 151 151 152 152 153 153 98 5 5 1 2 3 4 5 6 7 8 90 91 92 93 94 95 96 97 98 99 100 101 102 103 104 105 106 107 108 109 110 111 112 113 114 115 116 117 118 119 120 11 89 90 </DataArray>
        <DataArray type="Int32" format="ascii" Name="offsets">1 2 3 4 5 6 7 8 9 10 11 12 13 14 15 16 17 18 19 20 21 22 23 24 25 26 27 28 29 30 31 32 33 34 35 36 37 38 39 40 41 42 43 44 45 46 47 48 49 50 51 52 53 54 55 56 57 58 59 60 61 62 63 64 65 66 67 68 69 70 71 72 73 74 75 76 77 78 79 80 81 82 83 84 85 86 87 88 89 90 91 92 93 94 95 96 97 98 99 100 101 102 103 104 105 106 107 108 109 110 111 112 113 114 115 116 117 118 119 120 121 122 123 124 125 126 127 128 129 130 131 132 133 134 135 136 137 138 139 140 141 142 143 144 145 146 147 148 149 150 151 152 153 154 155 156 157 158 159 160 161 162 163 164 165 166 167 168 169 170 171 172 173 174 175 176 177 178 179 180 181 182 183 184 185 186 187 188 189 190 191 192 193 194 195 196 197 198 199 200 201 202 203 204 205 206 207 208 209 210 211 212 213 214 215 216 217 218 219 220 221 222 223 224 225 226 227 228 229 230 231 232 233 234 235 236 237 238 239 240 241 242 243 244 245 246 247 248 249 250 251 252 253 254 255 256 257 258 259 260 261 262 263 264 265 266 267 268 269 270 271 272 273 274 275 276 277 278 279 280 281 282 283 284 285 286 287 288 289 290 291 292 293 294 295 296 297 298 299 300 301 302 303 304 305 306 307 308 309 310 311 312 313 314 315 316 317 318 319 320 321 322 323 324 325 326 327 328 329 330 331 332 333 334 335 336 337 338 339 340 341 342 343 344 345 346 347 348 349 350 351 352 353 354 355 356 357 358 359 360 361 362 363 364 365 366 367 368 369 370 371 372 373 374 375 376 377 378 379 380 381 382 383 384 385 386 387 388 389 390 391 392 393 394 395 396 397 398 399 400 401 402 403 404 405 406 407 408 409 410 411 412 413 414 415 416 417 418 419 420 421 422 423 424 </DataArray>
        <DataArray type="Int32" format="ascii" Name="types">1 1 1 1 1 1 1 1 1 1 1 1 1 1 1 1 1 1 1 1 1 1 1 1 1 1 1 1 1 1 1 1 1 1 1 1 1 1 1 1 1 1 1 1 1 1 1 1 1 1 1 1 1 1 1 1 1 1 1 1 1 1 1 1 1 1 1 1 1 1 1 1 1 1 1 1 1 1 1 1 1 1 1 1 1 1 1 1 1 1 1 1 1 1 1 1 1 1 1 1 1 1 1 1 1 1 1 1 1 1 1 1 1 1 1 1 1 1 1 1 1 1 1 1 1 1 1 1 1 1 1 1 1 1 1 1 1 1 1 1 1 1 1 1 1 1 1 1 1 1 1 1 1 1 1 1 1 1 1 1 1 1 1 1 1 1 1 1 1 1 1 1 1 1 1 1 1 1 1 1 1 1 1 1 1 1 1 1 1 1 1 1 1 1 1 1 1 1 1 1 1 1 1 1 1 1 1 1 1 1 1 1 1 1 1 1 1 1 1 1 1 1 1 1 1 1 1 1 1 1 1 1 1 1 1 1 1 1 1 1 1 1 1 1 1 1 1 1 1 1 1 1 1 1 1 1 1 1 1 1 1 1 1 1 1 1 1 1 1 1 1 1 1 1 1 1 1 1 1 1 1 1 1 1 1 1 1 1 1 1 1 1 1 1 1 1 1 1 1 1 1 1 1 1 1 1 1 1 1 1 1 1 1 1 1 1 1 1 1 1 1 1 1 1 1 1 1 1 1 1 1 1 1 1 1 1 1 1 1 1 1 1 1 1 1 1 1 1 1 1 1 1 1 1 1 1 1 1 1 1 1 1 1 1 1 1 1 1 1 1 1 1 1 1 1 1 1 1 1 1 1 1 1 1 1 1 1 1 1 1 1 1 1 1 1 1 1 1 1 1 1 1 1 1 1 1 1 1 1 1 1 1 1 1 1 1 1 1 1 1 1 1 1 1 </DataArray>
      </Cells>
      <CellData>
        <DataArray type="Int32" NumberOfComponents="1" format="ascii" Name="ELEM_ID">1 2 3 4 5 6 7 8 9 10 11 12 13 14 15 16 17 18 19 20 21 22 23 24 25 26 27 28 29 30 31 32 33 34 35 36 37 38 39 40 41 42 43 44 45 46 47 48 49 50 51 52 53 54 55 56 57 58 59 60 61 62 63 64 65 66 67 68 69 70 71 72 73 74 75 76 77 78 79 80 81 82 83 84 85 86 87 88 89 90 91 92 93 94 95 96 97 98 99 100 101 102 103 104 105 106 107 108 109 110 111 112 113 114 115 116 117 224 225 226 227 228 229 230 231 232 233 234 235 236 237 238 239 240 241 242 243 244 245 246 247 248 249 250 251 252 253 254 255 256 257 258 259 260 261 262 263 264 265 266 267 268 269 270 271 272 273 302 304 305 306 307 308 309 310 311 312 313 314 315 316 317 318 319 320 321 322 323 324 325 326 327 328 329 330 331 332 333 334 335 336 337 338 339 340 341 342 343 344 376 377 378 10000001 10000002 10000003 10000004 10000005 10000006 10000007 10000008 10000009 10000010 10000011 10000012 10000013 10000014 10000015 10000016 10000017 10000018 10000019 10000020 10000021 10000022 10000023 10000024 10000025 10000026 10000027 10000028 10000029 10000030 10000031 10000032 10000033 10000034 10000035 10000036 10000037 10000038 10000039 10000040 10000041 10000042 10000043 10000044 10000045 10000046 10000047 10000048 10000049 10000050 10000051 10000052 10000053 10000054 10000055 10000056 10000057 10000058 10000059 10000060 10000061 10000062 10000063 10000064 10000065 10000066 10000067 10000068 10000069 10000070 10000071 10000072 10000073 10000074 10000075 10000076 10000077 10000078 10000079 10000080 10000081 10000082 10000083 10000084 10000085 10000086 10000087 10000088 10000089 10000090 10000091 10000092 10000093 10000094 10000095 10000096 10000097 10000098 10000099 10000100 10000101 10000102 10000103 10000104 10000105 10000106 10000107 10000108 10000109 10000110 10000111 10000112 10000113 10000114 10000115 10000116 10000117 10000224 10000225 10000226 10000227 10000228 10000229 10000230 10000231 10000232 10000233 10000234 10000235 10000236 10000237 10000238 10000239 10000240 10000241 10000242 10000243 10000244 10000245 10000246 10000247 10000248 10000249 10000250 10000251 10000252 10000253 10000254 10000255 10000256 10000257 10000258 10000259 10000260 10000261 10000262 10000263 10000264 10000265 10000266 10000267 10000268 10000269 10000270 10000271 10000272 10000273 10000302 10000304 10000305 10000306 10000307 10000308 10000309 10000310 10000311 10000312 10000313 10000314 10000315 10000316 10000317 10000318 10000319 10000320 10000321 10000322 10000323 10000324 10000325 10000326 10000327 10000328 10000329 10000330 10000331 10000332 10000333 10000334 10000335 10000336 10000337 10000338 10000339 10000340 10000341 10000342 10000343 10000344 10000376 10000377 10000378 </DataArray>
        <DataArray type="Float64" NumberOfComponents="1" format="ascii" Name="Mass">47.9516 146.854 201.985 223.724 147.163 211.146 319.02 206.4675 122.7675 64.1885 13.49375 5.78689 17.3607 11.5738 34.7214 10.1109 30.3326 8.43662 25.3099 8.19643 24.5893 8.13881 24.4164 8.0814 24.2442 8.02419 24.0726 7.91238 23.7371 7.64817 22.9445 7.37155 22.1146 7.21401 21.642 7.09083 21.2725 6.96851 20.9055 6.84683 20.5405 6.72591 20.1777 6.60583 19.8175 6.48634 19.459 6.36766 19.103 6.24981 18.7494 6.13254 18.3976 6.01609 18.0483 5.90046 17.7014 5.78542 17.3562 5.67121 17.0136 5.55777 16.6733 5.44496 16.3349 5.33299 15.999 5.23102 15.6931 5.16432 15.493 5.03776 15.1133 4.78546 14.3564 4.50519 13.5156 4.23974 12.7192 3.98094 11.9428 3.73117 11.1935 3.48877 10.4663 3.25468 9.76404 3.02962 9.08886 2.81121 8.43364 2.60183 7.8055 2.40029 7.20088 2.2066 6.61979 2.02193 6.06578 1.84391 5.53173 1.67492 5.02476 1.51425 4.54274 1.36094 4.08282 1.21666 3.64998 1.07903 3.2371 0.950434 2.8513 0.828489 2.48547 0.383817 1.15145 1.407765 4.2233 2.81553 8.4466 2.81553 8.4466 2.81553 8.4466 2.81553 8.4466 2.923685 8.77105 3.03184 9.0955 3.03184 9.0955 3.03184 9.0955 2.6533 7.9599 1.137385 3.41215 1.09115 3.27346 2.18231 6.54692 21.2352 63.7055 37.8322 113.497 33.0675 99.2026 28.6296 85.8887 24.5183 73.5549 20.3865 61.1595 16.7807 50.3421 13.9879 41.9637 11.4459 34.3377 9.16666 27.5 7.13821 21.4146 3.09185 9.27554 3440.58 1305.575 698.39 361.2405 835.42 921.4 630.05 875.525 1366.02 1032.77 962.945 100.24 100.24 99.0133 99.0133 97.7942 97.7942 96.5827 185.963 89.3801 87.0672 171.844 84.7769 82.5079 162.768 80.2602 78.0338 153.862 75.8286 73.6448 73.6448 71.4822 140.823 69.3408 67.2208 132.343 65.122 63.0445 125.298 62.254 56.4062 56.4062 198.305 396.61 198.305 47.9516 146.854 201.985 223.724 147.163 211.146 319.02 206.4675 122.7675 64.1885 13.49375 5.78689 17.3607 11.5738 34.7214 10.1109 30.3326 8.43662 25.3099 8.19643 24.5893 8.13881 24.4164 8.0814 24.2442 8.02419 24.0726 7.91238 23.7371 7.64817 22.9445 7.37155 22.1146 7.21401 21.642 7.09083 21.2725 6.96851 20.9055 6.84683 20.5405 6.72591 20.1777 6.60583 19.8175 6.48634 19.459 6.36766 19.103 6.24981 18.7494 6.13254 18.3976 6.01609 18.0483 5.90046 17.7014 5.78542 17.3562 5.67121 17.0136 5.55777 16.6733 5.44496 16.3349 5.33299 15.999 5.23102 15.6931 5.16432 15.493 5.03776 15.1133 4.78546 14.3564 4.50519 13.5156 4.23974 12.7192 3.98094 11.9428 3.73117 11.1935 3.48877 10.4663 3.25468 9.76404 3.02962 9.08886 2.81121 8.43364 2.60183 7.8055 2.40029 7.20088 2.2066 6.61979 2.02193 6.06578 1.84391 5.53173 1.67492 5.02476 1.51425 4.54274 1.36094 4.08282 1.21666 3.64998 1.07903 3.2371 0.950434 2.8513 0.828489 2.48547 0.383817 1.15145 1.407765 4.2233 2.81553 8.4466 2.81553 8.4466 2.81553 8.4466 2.81553 8.4466 2.923685 8.77105 3.03184 9.0955 3.03184 9.0955 3.03184 9.0955 2.6533 7.9599 1.137385 3.41215 1.09115 3.27346 2.18231 6.54692 21.2352 63.7055 37.8322 113.497 33.0675 99.2026 28.6296 85.8887 24.5183 73.5549 20.3865 61.1595 16.7807 50.3421 13.9879 41.9637 11.4459 34.3377 9.16666 27.5 7.13821 21.4146 3.09185 9.27554 3440.58 1305.575 698.39 361.2405 835.42 921.4 630.05 875.525 1366.02 1032.77 962.945 100.24 100.24 99.0133 99.0133 97.7942 97.7942 96.5827 185.963 89.3801 87.0672 171.844 84.7769 82.5079 162.768 80.2602 78.0338 153.862 75.8286 73.6448 73.6448 71.4822 140.823 69.3408 67.2208 132.343 65.122 63.0445 125.298 62.254 56.4062 56.4062 198.305 396.61 198.305 </DataArray>
      </CellData>
    </Piece>
  </UnstructuredGrid>
</VTKFile>
