<VTKFile byte_order="LittleEndian" type="UnstructuredGrid" version="0.1">
  <UnstructuredGrid>
    <Piece NumberOfCells="76" NumberOfPoints="228">
      <Points>
        <DataArray type="Float64" format="ascii" NumberOfComponents="3">20.12799 16.61881 1.844444 18.87956 15.66406 1.94501 18.85727 15.58333 1.948053 18.97185 15.62153 1.95109 19.1981 14.99876 1.964499 19.30378 15.02566 1.955682 19.22119 15.08141 1.961097 19.5841 15.28503 1.923685 19.66883 15.22876 1.9127 19.55955 15.19818 1.927507 19.83831 15.21331 1.88594 19.79456 15.31977 1.893456 19.76613 15.2187 1.897753 18.40107 14.56575 1.973642 18.41781 14.64564 1.971376 18.30857 14.61492 1.963428 19.02614 14.6504 1.980599 19.04428 14.73492 1.978301 18.93901 14.70509 1.982584 19.53815 14.25196 1.927621 19.55674 14.33825 1.925417 19.449 14.29999 1.942101 18.76469 9.872973 2.017994 18.71816 9.978993 2.028915 18.69851 9.886378 2.031631 20.08889 16.72323 1.850922 20.06352 16.63257 1.854545 16.92632 2.085787 2.297925 17.02785 2.112733 2.278123 16.94331 2.16884 2.295496 15.90741 2.370668 2.348061 15.89069 2.286741 2.350193 16.45927 2.663954 2.352362 16.54693 2.612182 2.347765 16.44201 2.57758 2.354557 15.99637 2.311399 2.357532 20.39771 18.19569 1.808246 20.37245 18.10507 1.811782 20.42304 18.08798 1.803486 20.81594 20.41422 1.753938 20.79075 20.3236 1.757222 20.70867 19.66729 1.767118 20.68346 19.57669 1.770526 20.85612 20.30874 1.747833 20.72517 19.56157 1.763916 21.12539 21.8857 1.713183 21.10013 21.7951 1.716212 21.15577 21.78246 1.710448 21.23041 22.63292 1.699083 21.20514 22.54231 1.702106 21.27964 22.52565 1.69433 21.8574 25.60394 1.618718 21.83033 25.50778 1.621738 21.53996 24.10432 1.659111 21.5146 24.01372 1.662077 21.88598 25.49956 1.618034 21.57935 23.99929 1.65684 16.97292 2.086217 1.885416 17.07221 2.113141 1.885325 16.98986 2.169269 1.882689 15.95025 2.371062 1.968365 15.93356 2.287136 1.970378 16.51106 2.664431 1.893714 16.59893 2.612661 1.887358 16.49383 2.578058 1.895854 16.04218 2.311821 1.951824 18.78942 9.870518 1.731646 18.74449 9.975283 1.72593 18.72481 9.882678 1.727218 18.41869 14.56643 1.674546 18.43546 14.64631 1.672842 18.32729 14.61508 1.684122 19.04546 14.65134 1.640236 19.06346 14.73589 1.63882 18.95604 14.70653 1.641266 19.55686 14.25192 1.661243 19.57543 14.33821 1.660086 19.46921 14.29994 1.654983 20.14103 16.61946 1.635794 18.89854 15.66502 1.63884 18.87635 15.58429 1.640203 18.99153 15.62253 1.633923 19.22519 14.99808 1.63422 19.3317 15.02461 1.634772 19.24719 15.08098 1.633082 19.60185 15.28592 1.63767 19.68553 15.2296 1.643285 19.57747 15.19908 1.638587 19.8526 15.21403 1.655142 19.80974 15.32054 1.648762 19.78151 15.21947 1.649661 20.09657 16.72552 1.629555 20.07215 16.63468 1.630351 20.39549 18.19989 1.609041 20.37104 18.10912 1.609903 20.42093 18.09198 1.61434 20.70672 19.67096 1.590374 20.68192 19.58031 1.591229 20.72331 19.56508 1.59515 20.81535 20.41751 1.578103 20.79044 20.32688 1.57899 20.85433 20.31212 1.583504 21.12374 21.88878 1.559153 21.09845 21.79824 1.559632 21.15421 21.78536 1.565253 21.22878 22.63595 1.546106 21.20349 22.54539 1.546609 21.27815 22.52842 1.553941 21.85635 25.60589 1.514725 21.82925 25.50979 1.514917 21.53861 24.1068 1.530043 21.51323 24.01626 1.530389 21.88502 25.50135 1.522003 21.57811 24.00158 1.537631 20.12799 -16.6188 1.844444 18.87956 -15.6641 1.94501 18.85727 -15.5833 1.948053 18.97185 -15.6215 1.95109 19.1981 -14.9988 1.964499 19.30378 -15.0257 1.955682 19.22119 -15.0814 1.961097 19.5841 -15.285 1.923685 19.66883 -15.2288 1.9127 19.55955 -15.1982 1.927507 19.83831 -15.2133 1.88594 19.79456 -15.3198 1.893456 19.76613 -15.2187 1.897753 18.40107 -14.5657 1.973642 18.41781 -14.6456 1.971376 18.30857 -14.6149 1.963428 19.02614 -14.6504 1.980599 19.04428 -14.7349 1.978301 18.93901 -14.7051 1.982584 19.53815 -14.252 1.927621 19.55674 -14.3383 1.925417 19.449 -14.3 1.942101 18.76469 -9.87297 2.017994 18.71816 -9.97899 2.028915 18.69851 -9.88638 2.031631 20.08889 -16.7232 1.850922 20.06352 -16.6326 1.854545 16.92632 -2.08579 2.297925 17.02785 -2.11273 2.278123 16.94331 -2.16884 2.295496 15.90741 -2.37067 2.348061 15.89069 -2.28674 2.350193 16.45927 -2.66395 2.352362 16.54693 -2.61218 2.347765 16.44201 -2.57758 2.354557 15.99637 -2.3114 2.357532 20.39771 -18.1957 1.808246 20.37245 -18.1051 1.811782 20.42304 -18.088 1.803486 20.81594 -20.4142 1.753938 20.79075 -20.3236 1.757222 20.70867 -19.6673 1.767118 20.68346 -19.5767 1.770526 20.85612 -20.3087 1.747833 20.72517 -19.5616 1.763916 21.12539 -21.8857 1.713183 21.10013 -21.7951 1.716212 21.15577 -21.7825 1.710448 21.23041 -22.6329 1.699083 21.20514 -22.5423 1.702106 21.27964 -22.5256 1.69433 21.8574 -25.6039 1.618718 21.83033 -25.5078 1.621738 21.53996 -24.1043 1.659111 21.5146 -24.0137 1.662077 21.88598 -25.4996 1.618034 21.57935 -23.9993 1.65684 16.97292 -2.08622 1.885416 17.07221 -2.11314 1.885325 16.98986 -2.16927 1.882689 15.95025 -2.37106 1.968365 15.93356 -2.28714 1.970378 16.51106 -2.66443 1.893714 16.59893 -2.61266 1.887358 16.49383 -2.57806 1.895854 16.04218 -2.31182 1.951824 18.78942 -9.87052 1.731646 18.74449 -9.97528 1.72593 18.72481 -9.88268 1.727218 18.41869 -14.5664 1.674546 18.43546 -14.6463 1.672842 18.32729 -14.6151 1.684122 19.04546 -14.6513 1.640236 19.06346 -14.7359 1.63882 18.95604 -14.7065 1.641266 19.55686 -14.2519 1.661243 19.57543 -14.3382 1.660086 19.46921 -14.2999 1.654983 20.14103 -16.6195 1.635794 18.89854 -15.665 1.63884 18.87635 -15.5843 1.640203 18.99153 -15.6225 1.633923 19.22519 -14.9981 1.63422 19.3317 -15.0246 1.634772 19.24719 -15.081 1.633082 19.60185 -15.2859 1.63767 19.68553 -15.2296 1.643285 19.57747 -15.1991 1.638587 19.8526 -15.214 1.655142 19.80974 -15.3205 1.648762 19.78151 -15.2195 1.649661 20.09657 -16.7255 1.629555 20.07215 -16.6347 1.630351 20.39549 -18.1999 1.609041 20.37104 -18.1091 1.609903 20.42093 -18.092 1.61434 20.70672 -19.671 1.590374 20.68192 -19.5803 1.591229 20.72331 -19.5651 1.59515 20.81535 -20.4175 1.578103 20.79044 -20.3269 1.57899 20.85433 -20.3121 1.583504 21.12374 -21.8888 1.559153 21.09845 -21.7982 1.559632 21.15421 -21.7854 1.565253 21.22878 -22.636 1.546106 21.20349 -22.5454 1.546609 21.27815 -22.5284 1.553941 21.85635 -25.6059 1.514725 21.82925 -25.5098 1.514917 21.53861 -24.1068 1.530043 21.51323 -24.0163 1.530389 21.88502 -25.5013 1.522003 21.57811 -24.0016 1.537631 </DataArray>
      </Points>
      <PointData>
        <DataArray type="Int32" NumberOfComponents="1" format="ascii" Name="GRID_ID">2000101 2000164 2000165 2000196 2000263 2000264 2000265 2000281 2000288 2000289 2000341 2000344 2000345 2000355 2000357 2000361 2000422 2000423 2000424 2000512 2000513 2000514 2002039 2002042 2002043 2002548 2002550 2002582 2002583 2002584 2002605 2002606 2002640 2002644 2002645 2002674 2003530 2003531 2003626 2003633 2003634 2003721 2003722 2003803 2003814 2003843 2003844 2003982 2004002 2004003 2004126 2004185 2004186 2004232 2004233 2004287 2004312 2004503 2004504 2004505 2004526 2004527 2004561 2004565 2004566 2004595 2006097 2006100 2006101 2006474 2006476 2006480 2006536 2006537 2006538 2006624 2006625 2006626 2006827 2006884 2006885 2006916 2006982 2006983 2006984 2006999 2007006 2007007 2007058 2007061 2007062 2007088 2007089 2007409 2007410 2007505 2007521 2007522 2007603 2007609 2007610 2007704 2007733 2007734 2007872 2007892 2007893 2007946 2008084 2008085 2008131 2008132 2008186 2008211 12000101 12000164 12000165 12000196 12000263 12000264 12000265 12000281 12000288 12000289 12000341 12000344 12000345 12000355 12000357 12000361 12000422 12000423 12000424 12000512 12000513 12000514 12002039 12002042 12002043 12002548 12002550 12002582 12002583 12002584 12002605 12002606 12002640 12002644 12002645 12002674 12003530 12003531 12003626 12003633 12003634 12003721 12003722 12003803 12003814 12003843 12003844 12003982 12004002 12004003 12004126 12004185 12004186 12004232 12004233 12004287 12004312 12004503 12004504 12004505 12004526 12004527 12004561 12004565 12004566 12004595 12006097 12006100 12006101 12006474 12006476 12006480 12006536 12006537 12006538 12006624 12006625 12006626 12006827 12006884 12006885 12006916 12006982 12006983 12006984 12006999 12007006 12007007 12007058 12007061 12007062 12007088 12007089 12007409 12007410 12007505 12007521 12007522 12007603 12007609 12007610 12007704 12007733 12007734 12007872 12007892 12007893 12007946 12008084 12008085 12008131 12008132 12008186 12008211 </DataArray>
      </PointData>
      <Cells>
        <DataArray type="Int32" format="ascii" Name="connectivity">22 24 23 20 19 21 17 16 18 14 13 15 10 12 11 9 7 8 4 6 5 2 1 3 31 30 35 34 32 33 27 29 28 0 26 25 38 37 36 43 40 39 44 42 41 47 46 45 50 49 48 55 52 51 56 54 53 57 58 59 61 65 60 64 63 62 66 67 68 76 77 75 73 74 72 70 71 69 78 91 92 88 89 90 87 86 85 82 83 84 80 81 79 95 93 94 98 96 97 101 99 100 104 102 103 107 105 106 112 108 109 113 110 111 136 137 138 134 135 133 131 132 130 128 129 127 124 125 126 123 122 121 118 119 120 116 117 115 145 149 144 148 147 146 141 142 143 114 139 140 152 150 151 157 153 154 158 155 156 161 159 160 164 162 163 169 165 166 170 167 168 171 173 172 175 174 179 178 176 177 180 182 181 190 189 191 187 186 188 184 183 185 192 206 205 202 204 203 201 199 200 196 198 197 194 193 195 209 208 207 212 211 210 215 214 213 218 217 216 221 220 219 226 223 222 227 225 224 </DataArray>
        <DataArray type="Int32" format="ascii" Name="offsets">3 6 9 12 15 18 21 24 27 30 33 36 39 42 45 48 51 54 57 60 63 66 69 72 75 78 81 84 87 90 93 96 99 102 105 108 111 114 117 120 123 126 129 132 135 138 141 144 147 150 153 156 159 162 165 168 171 174 177 180 183 186 189 192 195 198 201 204 207 210 213 216 219 222 225 228 </DataArray>
        <DataArray type="Int32" format="ascii" Name="types">5 5 5 5 5 5 5 5 5 5 5 5 5 5 5 5 5 5 5 5 5 5 5 5 5 5 5 5 5 5 5 5 5 5 5 5 5 5 5 5 5 5 5 5 5 5 5 5 5 5 5 5 5 5 5 5 5 5 5 5 5 5 5 5 5 5 5 5 5 5 5 5 5 5 5 5 </DataArray>
      </Cells>
      <CellData>
        <DataArray type="Int32" NumberOfComponents="1" format="ascii" Name="ELEM_ID">2001216 2002518 2002613 2002678 2002694 2002741 2002752 2002861 2002921 2002984 2003012 2003050 2003452 2003617 2003630 2003787 2003920 2004061 2004090 2008212 2008254 2008265 2010312 2011850 2011945 2012010 2012310 2012322 2012369 2012380 2012489 2013240 2013333 2013770 2013927 2013996 2014465 2014494 12001216 12002518 12002613 12002678 12002694 12002741 12002752 12002861 12002921 12002984 12003012 12003050 12003452 12003617 12003630 12003787 12003920 12004061 12004090 12008212 12008254 12008265 12010312 12011850 12011945 12012010 12012310 12012322 12012369 12012380 12012489 12013240 12013333 12013770 12013927 12013996 12014465 12014494 </DataArray>
      </CellData>
    </Piece>
  </UnstructuredGrid>
</VTKFile>
