<VTKFile byte_order="LittleEndian" type="UnstructuredGrid" version="0.1">
  <UnstructuredGrid>
    <Piece NumberOfCells="180" NumberOfPoints="211">
      <Points>
        <DataArray type="Float64" format="ascii" NumberOfComponents="3">16.5335 0.0 0.0 34.1749 0.0 0.6771 17.2676 5.6656 2.02122 34.1749 0.0 1.2687 38.2189 0.0 5.9207 38.3537 0.0 5.9207 38.3537 0.1261 5.9207 38.3537 0.2522 5.9207 38.5245 0.7876 5.8927 38.6953 1.323 5.8646 38.8661 1.8583 5.8366 39.037 2.3937 5.8085 39.2078 2.9291 5.7805 39.3635 3.4172 5.7549 39.5193 3.9053 5.7293 39.675 4.3934 5.7037 39.8308 4.8816 5.6781 39.9865 5.3697 5.6525 40.1423 5.8578 5.627 14.2449 6.215786 0.79594 37.5091 0.0 5.9207 38.3537 0.0 5.7511 39.1983 0.0 5.9207 38.3537 0.0 6.0904 37.549 0.1261 5.9207 38.3537 0.1261 5.7511 39.1583 0.1261 5.9207 38.3537 0.1261 6.0904 37.549 0.2522 5.9207 38.3537 0.2522 5.7511 39.1583 0.2522 5.9207 38.3537 0.2522 6.0904 37.8047 1.0166 5.8807 38.5245 0.7792 5.7336 39.2443 0.5585 5.9047 38.5245 0.7959 6.0518 38.0224 1.5371 5.8534 38.6953 1.3152 5.7159 39.3682 1.1088 5.8758 38.6953 1.3308 6.0134 38.2401 2.0576 5.8261 38.8661 1.8511 5.6982 39.4922 1.6591 5.847 38.8661 1.8656 5.9749 38.4577 2.578 5.7988 39.037 2.387 5.6805 39.6162 2.2094 5.8182 39.037 2.4004 5.9365 38.6754 3.0985 5.7716 39.2078 2.9229 5.6628 39.7402 2.7597 5.7893 39.2078 2.9352 5.8981 38.8739 3.573 5.7467 39.3635 3.4115 5.6467 39.8532 3.2614 5.763 39.3635 3.4229 5.8631 39.0724 4.0475 5.7218 39.5193 3.9001 5.6305 39.9662 3.7631 5.7367 39.5193 3.9105 5.8281 39.2708 4.5221 5.697 39.675 4.3888 5.6144 40.0792 4.2648 5.7104 39.675 4.3981 5.793 39.4693 4.9966 5.6721 39.8308 4.8774 5.5982 40.1923 4.7665 5.6841 39.8308 4.8857 5.758 39.6678 5.4711 5.6472 39.9865 5.366 5.5821 40.3053 5.2683 5.6579 39.9865 5.3734 5.723 39.8382 5.8578 5.627 40.1423 5.8546 5.566 40.4464 5.8578 5.627 40.1423 5.861 5.688 15.73827 2.006108 2.347442 17.29599 2.006074 2.209903 15.87199 2.003244 1.979563 15.9724 2.003239 1.961307 16.07485 2.003249 1.945096 16.17375 2.003247 1.931627 16.27347 2.003249 1.920092 16.37247 2.003249 1.91055 16.4706 2.003249 1.902854 16.56809 2.003249 1.896836 16.66492 2.003249 1.892359 16.76106 2.003249 1.889292 16.85939 2.003255 1.887474 17.33403 1.999315 1.892819 15.78062 2.000466 1.995803 16.95509 2.003249 1.886885 17.04978 2.003245 1.887357 17.14345 2.003243 1.888767 17.23619 2.003243 1.891002 17.20149 2.003672 2.235994 17.10578 2.00342 2.260024 17.00982 2.003247 2.281718 16.91303 2.003125 2.30118 16.81584 2.003055 2.318297 16.71612 2.002996 2.33255 16.61897 2.002967 2.345436 16.52152 2.00296 2.355994 16.42381 2.002946 2.364055 16.32591 2.002961 2.369649 16.22788 2.002988 2.372568 16.12979 2.003018 2.372812 16.03175 2.003099 2.370371 15.93381 2.00324 2.365272 15.83607 2.003557 2.35758 17.2676 -5.6656 2.02122 38.3537 -0.1261 5.9207 38.3537 -0.2522 5.9207 38.5245 -0.7876 5.8927 38.6953 -1.323 5.8646 38.8661 -1.8583 5.8366 39.037 -2.3937 5.8085 39.2078 -2.9291 5.7805 39.3635 -3.4172 5.7549 39.5193 -3.9053 5.7293 39.675 -4.3934 5.7037 39.8308 -4.8816 5.6781 39.9865 -5.3697 5.6525 40.1423 -5.8578 5.627 14.2449 -6.21579 0.79594 37.549 -0.1261 5.9207 38.3537 -0.1261 5.7511 39.1583 -0.1261 5.9207 38.3537 -0.1261 6.0904 37.549 -0.2522 5.9207 38.3537 -0.2522 5.7511 39.1583 -0.2522 5.9207 38.3537 -0.2522 6.0904 37.8047 -1.0166 5.8807 38.5245 -0.7792 5.7336 39.2443 -0.5585 5.9047 38.5245 -0.7959 6.0518 38.0224 -1.5371 5.8534 38.6953 -1.3152 5.7159 39.3682 -1.1088 5.8758 38.6953 -1.3308 6.0134 38.2401 -2.0576 5.8261 38.8661 -1.8511 5.6982 39.4922 -1.6591 5.847 38.8661 -1.8656 5.9749 38.4577 -2.578 5.7988 39.037 -2.387 5.6805 39.6162 -2.2094 5.8182 39.037 -2.4004 5.9365 38.6754 -3.0985 5.7716 39.2078 -2.9229 5.6628 39.7402 -2.7597 5.7893 39.2078 -2.9352 5.8981 38.8739 -3.573 5.7467 39.3635 -3.4115 5.6467 39.8532 -3.2614 5.763 39.3635 -3.4229 5.8631 39.0724 -4.0475 5.7218 39.5193 -3.9001 5.6305 39.9662 -3.7631 5.7367 39.5193 -3.9105 5.8281 39.2708 -4.5221 5.697 39.675 -4.3888 5.6144 40.0792 -4.2648 5.7104 39.675 -4.3981 5.793 39.4693 -4.9966 5.6721 39.8308 -4.8774 5.5982 40.1923 -4.7665 5.6841 39.8308 -4.8857 5.758 39.6678 -5.4711 5.6472 39.9865 -5.366 5.5821 40.3053 -5.2683 5.6579 39.9865 -5.3734 5.723 39.8382 -5.8578 5.627 40.1423 -5.8546 5.566 40.4464 -5.8578 5.627 40.1423 -5.861 5.688 15.73827 -2.00611 2.347442 17.29599 -2.00607 2.209903 15.87199 -2.00324 1.979563 15.9724 -2.00324 1.961307 16.07485 -2.00325 1.945096 16.17375 -2.00325 1.931627 16.27347 -2.00325 1.920092 16.37247 -2.00325 1.91055 16.4706 -2.00325 1.902854 16.56809 -2.00325 1.896836 16.66492 -2.00325 1.892359 16.76106 -2.00325 1.889292 16.85939 -2.00326 1.887474 17.33403 -1.99932 1.892819 15.78062 -2.00047 1.995803 16.95509 -2.00325 1.886885 17.04978 -2.00325 1.887357 17.14345 -2.00324 1.888767 17.23619 -2.00324 1.891002 17.20149 -2.00367 2.235994 17.10578 -2.00342 2.260024 17.00982 -2.00325 2.281718 16.91303 -2.00313 2.30118 16.81584 -2.00306 2.318297 16.71612 -2.003 2.33255 16.61897 -2.00297 2.345436 16.52152 -2.00296 2.355994 16.42381 -2.00295 2.364055 16.32591 -2.00296 2.369649 16.22788 -2.00299 2.372568 16.12979 -2.00302 2.372812 16.03175 -2.0031 2.370371 15.93381 -2.00324 2.365272 15.83607 -2.00356 2.35758 </DataArray>
      </Points>
      <PointData>
        <DataArray type="Int32" NumberOfComponents="1" format="ascii" Name="GRID_ID">1005 1009 2010 3000 3009 4000 4001 4002 4003 4004 4005 4006 4007 4008 4009 4010 4011 4012 4013 30010 40000 40001 40002 40003 40004 40005 40006 40007 40008 40009 40010 40011 40012 40013 40014 40015 40016 40017 40018 40019 40020 40021 40022 40023 40024 40025 40026 40027 40028 40029 40030 40031 40032 40033 40034 40035 40036 40037 40038 40039 40040 40041 40042 40043 40044 40045 40046 40047 40048 40049 40050 40051 40052 40053 40054 40055 2000055 2000104 2000682 2000683 2000684 2000685 2000686 2000687 2000688 2000689 2000690 2000691 2000692 2001685 2001728 2002245 2002246 2002247 2002248 2002939 2002940 2002941 2002942 2002943 2002944 2002945 2002946 2002947 2002948 2002949 2002950 2002951 2002952 2002953 10002010 10004001 10004002 10004003 10004004 10004005 10004006 10004007 10004008 10004009 10004010 10004011 10004012 10004013 10030010 10040004 10040005 10040006 10040007 10040008 10040009 10040010 10040011 10040012 10040013 10040014 10040015 10040016 10040017 10040018 10040019 10040020 10040021 10040022 10040023 10040024 10040025 10040026 10040027 10040028 10040029 10040030 10040031 10040032 10040033 10040034 10040035 10040036 10040037 10040038 10040039 10040040 10040041 10040042 10040043 10040044 10040045 10040046 10040047 10040048 10040049 10040050 10040051 10040052 10040053 10040054 10040055 12000055 12000104 12000682 12000683 12000684 12000685 12000686 12000687 12000688 12000689 12000690 12000691 12000692 12001685 12001728 12002245 12002246 12002247 12002248 12002939 12002940 12002941 12002942 12002943 12002944 12002945 12002946 12002947 12002948 12002949 12002950 12002951 12002952 12002953 </DataArray>
      </PointData>
      <Cells>
        <DataArray type="Int32" format="ascii" Name="connectivity">5 20 5 21 5 22 5 23 6 24 6 25 6 26 6 27 7 28 7 29 7 30 7 31 8 32 8 33 8 34 8 35 9 36 9 37 9 38 9 39 10 40 10 41 10 42 10 43 11 44 11 45 11 46 11 47 12 48 12 49 12 50 12 51 13 52 13 53 13 54 13 55 14 56 14 57 14 58 14 59 15 60 15 61 15 62 15 63 16 64 16 65 16 66 16 67 17 68 17 69 17 70 17 71 18 72 18 73 18 74 18 75 0 76 0 77 0 78 0 79 0 80 0 81 0 82 0 83 0 84 0 85 0 86 0 87 0 88 0 89 0 90 0 91 0 92 0 93 0 94 0 95 0 96 0 97 0 98 0 99 0 100 0 101 0 102 0 103 0 104 0 105 0 106 0 107 0 108 0 109 1 3 4 5 2 19 111 125 111 126 111 127 111 128 112 129 112 130 112 131 112 132 113 133 113 134 113 135 113 136 114 137 114 138 114 139 114 140 115 141 115 142 115 143 115 144 116 145 116 146 116 147 116 148 117 149 117 150 117 151 117 152 118 153 118 154 118 155 118 156 119 157 119 158 119 159 119 160 120 161 120 162 120 163 120 164 121 165 121 166 121 167 121 168 122 169 122 170 122 171 122 172 123 173 123 174 123 175 123 176 0 177 0 178 0 179 0 180 0 181 0 182 0 183 0 184 0 185 0 186 0 187 0 188 0 189 0 190 0 191 0 192 0 193 0 194 0 195 0 196 0 197 0 198 0 199 0 200 0 201 0 202 0 203 0 204 0 205 0 206 0 207 0 208 0 209 0 210 110 124 </DataArray>
        <DataArray type="Int32" format="ascii" Name="offsets">2 4 6 8 10 12 14 16 18 20 22 24 26 28 30 32 34 36 38 40 42 44 46 48 50 52 54 56 58 60 62 64 66 68 70 72 74 76 78 80 82 84 86 88 90 92 94 96 98 100 102 104 106 108 110 112 114 116 118 120 122 124 126 128 130 132 134 136 138 140 142 144 146 148 150 152 154 156 158 160 162 164 166 168 170 172 174 176 178 180 182 184 186 188 190 192 194 196 198 200 202 204 206 208 210 212 214 216 218 220 222 224 226 228 230 232 234 236 238 240 242 244 246 248 250 252 254 256 258 260 262 264 266 268 270 272 274 276 278 280 282 284 286 288 290 292 294 296 298 300 302 304 306 308 310 312 314 316 318 320 322 324 326 328 330 332 334 336 338 340 342 344 346 348 350 352 354 356 358 360 </DataArray>
        <DataArray type="Int32" format="ascii" Name="types">3 3 3 3 3 3 3 3 3 3 3 3 3 3 3 3 3 3 3 3 3 3 3 3 3 3 3 3 3 3 3 3 3 3 3 3 3 3 3 3 3 3 3 3 3 3 3 3 3 3 3 3 3 3 3 3 3 3 3 3 3 3 3 3 3 3 3 3 3 3 3 3 3 3 3 3 3 3 3 3 3 3 3 3 3 3 3 3 3 3 3 3 3 3 3 3 3 3 3 3 3 3 3 3 3 3 3 3 3 3 3 3 3 3 3 3 3 3 3 3 3 3 3 3 3 3 3 3 3 3 3 3 3 3 3 3 3 3 3 3 3 3 3 3 3 3 3 3 3 3 3 3 3 3 3 3 3 3 3 3 3 3 3 3 3 3 3 3 3 3 3 3 3 3 3 3 3 3 3 3 </DataArray>
      </Cells>
      <CellData>
        <DataArray type="Int32" NumberOfComponents="1" format="ascii" Name="ELEM_ID">128 128 128 128 129 129 129 129 130 130 130 130 131 131 131 131 132 132 132 132 133 133 133 133 134 134 134 134 135 135 135 135 136 136 136 136 137 137 137 137 138 138 138 138 139 139 139 139 140 140 140 140 141 141 141 141 155 155 155 155 155 155 155 155 155 155 155 155 155 155 155 155 155 155 155 155 155 155 155 155 155 155 155 155 155 155 155 155 155 155 156 157 2010 10000129 10000129 10000129 10000129 10000130 10000130 10000130 10000130 10000131 10000131 10000131 10000131 10000132 10000132 10000132 10000132 10000133 10000133 10000133 10000133 10000134 10000134 10000134 10000134 10000135 10000135 10000135 10000135 10000136 10000136 10000136 10000136 10000137 10000137 10000137 10000137 10000138 10000138 10000138 10000138 10000139 10000139 10000139 10000139 10000140 10000140 10000140 10000140 10000141 10000141 10000141 10000141 10000155 10000155 10000155 10000155 10000155 10000155 10000155 10000155 10000155 10000155 10000155 10000155 10000155 10000155 10000155 10000155 10000155 10000155 10000155 10000155 10000155 10000155 10000155 10000155 10000155 10000155 10000155 10000155 10000155 10000155 10000155 10000155 10000155 10000155 10002010 </DataArray>
      </CellData>
    </Piece>
  </UnstructuredGrid>
</VTKFile>
