<VTKFile byte_order="LittleEndian" type="UnstructuredGrid" version="0.1">
  <UnstructuredGrid>
    <Piece NumberOfCells="420" NumberOfPoints="397">
      <Points>
        <DataArray type="Float64" format="ascii" NumberOfComponents="3">16.5335 0.0 2.11455 16.5335 1.00156 2.11455 16.5335 2.00312 2.11455 16.6244 2.45678 2.10285 16.7153 2.91045 2.09115 16.8062 3.36411 2.07944 16.8972 3.81777 2.06774 16.9881 4.27144 2.05604 17.079 4.7251 2.04434 17.1699 5.17876 2.03264 17.2676 5.6656 2.02122 17.3652 6.15243 2.0098 17.4629 6.63927 1.99839 17.5605 7.1261 1.98697 17.6582 7.61294 1.97556 17.7558 8.09977 1.96414 17.8535 8.58661 1.95273 17.9511 9.07344 1.94131 18.0488 9.56028 1.92989 18.1464 10.0471 1.91848 18.2441 10.5339 1.90706 18.3417 11.0208 1.89565 18.4394 11.5076 1.88423 18.537 11.9945 1.87282 18.6347 12.4813 1.8614 18.7323 12.9681 1.84999 18.83 13.455 1.83857 18.9277 13.9418 1.82715 19.0253 14.4286 1.81574 19.123 14.9155 1.80432 19.2359 15.3927 1.79321 19.3488 15.87 1.7821 19.4617 16.3472 1.771 19.5747 16.8245 1.75989 19.6876 17.3018 1.74878 19.8005 17.779 1.73767 19.9134 18.2563 1.72656 20.0263 18.7335 1.71545 20.1393 19.2108 1.70434 20.2522 19.6881 1.69323 20.3651 20.1653 1.68212 20.478 20.6426 1.67102 20.591 21.1198 1.65991 20.7039 21.5971 1.6488 20.8168 22.0744 1.63769 20.9297 22.5516 1.62658 21.0427 23.0289 1.61547 21.1556 23.5061 1.60436 21.2685 23.9834 1.59325 21.3814 24.4607 1.58214 21.4944 24.9379 1.57104 21.6073 25.4152 1.55993 21.7202 25.8924 1.54882 17.29502 5.375e-08 2.21315 15.73774 1.335677 2.35068 15.73491 5.383e-08 2.355353 17.29741 1.335452 2.210469 17.88664 5.014102 2.124885 18.0184 5.682015 2.107526 17.42164 2.644092 2.187441 15.93077 2.966897 2.322456 16.0866 3.760257 2.303628 16.24063 4.554873 2.2843 16.39701 5.349769 2.26731 17.57707 3.438446 2.166284 17.73283 4.232339 2.145339 16.52219 5.988132 2.24826 16.65114 6.637667 2.227743 18.14644 6.32952 2.090788 17.72062 11.8216 2.050085 19.18279 11.52753 1.958524 19.0527 10.87759 1.974918 18.92261 10.2274 1.99135 18.40427 7.629025 2.057417 17.58427 11.17337 2.071914 17.44837 10.52516 2.094153 18.27515 6.97893 2.074077 17.31314 9.876958 2.11669 15.87199 2.003244 1.979563 16.91232 7.932449 2.184405 16.78088 7.284319 2.206423 17.17855 9.228771 2.13935 17.04497 8.5806 2.161989 18.53337 8.277752 2.040851 18.79269 9.577519 2.00781 18.66286 8.927286 2.024317 19.31292 12.17764 1.942154 19.44299 12.82776 1.92581 19.57295 13.47801 1.90949 17.85711 12.46982 2.028789 17.99379 13.11805 2.00815 18.13035 13.76628 1.988249 19.70266 14.12814 1.893201 18.26651 14.4145 1.969153 21.4328 22.87561 1.676761 20.70937 19.1845 1.763328 20.5637 18.44624 1.781947 20.99915 20.66092 1.727346 20.85444 19.92266 1.745146 21.1441 21.39915 1.713362 20.02835 20.884 1.747193 20.22852 21.60787 1.722165 19.6275 19.43436 1.79485 19.42732 18.71156 1.818969 19.82848 20.1611 1.770863 19.02488 17.26085 1.866041 19.22546 17.98361 1.841254 20.41765 17.70815 1.803297 19.85953 14.9152 1.873656 18.37143 14.91558 1.954968 19.97587 15.49454 1.860008 18.62145 15.81105 1.917837 18.82339 16.53594 1.89154 20.27156 16.97327 1.822655 20.12377 16.23309 1.842653 21.2884 22.13738 1.695032 21.72192 24.35195 1.640306 21.57719 23.61373 1.658535 21.86685 25.09007 1.622077 21.23604 25.23284 1.604712 21.42071 25.89246 1.583264 20.42955 22.33361 1.698629 20.63113 23.06044 1.675096 20.83191 23.78323 1.651698 21.03422 24.51003 1.628148 22.02516 25.89225 1.603129 17.32945 1.336617 1.892391 17.32651 5.258e-08 1.8909 15.77725 1.336742 1.999366 15.77442 5.291e-08 1.999338 17.45838 2.644204 1.880968 17.91835 5.01063 1.838123 18.04967 5.682481 1.826142 17.6124 3.438808 1.866456 17.76674 4.232845 1.852086 16.4327 5.346035 1.912285 16.27867 4.555476 1.933345 16.12386 3.761048 1.953173 15.96824 2.967647 1.973023 16.55749 5.989438 1.895465 18.17657 6.33022 1.814653 18.30421 6.980174 1.803181 18.432 7.629492 1.791771 16.94392 7.934512 1.84179 16.81376 7.286117 1.859769 16.68523 6.639217 1.877579 17.23619 2.003243 1.891002 17.07528 8.58287 1.823874 17.34108 9.879781 1.789026 17.20769 9.231226 1.806227 17.47547 10.52456 1.774605 17.60926 11.17318 1.756652 19.87362 14.91571 1.66645 18.81712 9.579208 1.757776 18.68845 8.92884 1.769075 18.94489 10.22426 1.746607 18.56009 8.279094 1.780403 19.07443 10.87767 1.735329 19.71813 14.12697 1.679784 18.38956 14.91535 1.677556 18.28585 14.41538 1.688495 18.15109 13.76689 1.702731 18.01612 13.11835 1.717018 17.88028 12.46987 1.729271 17.74441 11.82162 1.741557 19.203 11.52595 1.724175 19.33211 12.17697 1.713008 19.46127 12.82855 1.701869 19.58976 13.47753 1.690811 19.9897 15.49505 1.657912 20.13642 16.2336 1.647367 20.28316 16.97385 1.636926 20.5726 18.44714 1.616437 20.42792 17.70895 1.626689 20.71688 19.18555 1.608257 20.03392 20.88609 1.567051 19.83488 20.16323 1.580027 19.63626 19.4361 1.593085 19.43778 18.7131 1.606258 19.23757 17.9849 1.619661 19.0376 17.26221 1.633177 18.83835 16.53695 1.646706 18.6381 15.81184 1.660362 17.20149 2.003672 2.235994 15.83607 2.003557 2.35758 20.85978 19.92443 1.596596 21.00389 20.66227 1.586693 21.14742 21.40074 1.5772 21.29056 22.13904 1.568115 21.43359 22.8774 1.55933 20.83137 23.78592 1.517203 20.63218 23.06294 1.529306 20.43228 22.33592 1.541712 20.23283 21.61003 1.554312 21.57243 23.61663 1.55026 21.72014 24.35394 1.542573 21.8639 25.09216 1.534482 22.02033 25.89244 1.525797 21.03216 24.51286 1.505313 21.23232 25.23585 1.493823 21.41467 25.89227 1.483736 16.5335 -1.00156 2.11455 16.5335 -2.00312 2.11455 16.6244 -2.45678 2.10285 16.7153 -2.91045 2.09115 16.8062 -3.36411 2.07944 16.8972 -3.81777 2.06774 16.9881 -4.27144 2.05604 17.079 -4.7251 2.04434 17.1699 -5.17876 2.03264 17.2676 -5.6656 2.02122 17.3652 -6.15243 2.0098 17.4629 -6.63927 1.99839 17.5605 -7.1261 1.98697 17.6582 -7.61294 1.97556 17.7558 -8.09977 1.96414 17.8535 -8.58661 1.95273 17.9511 -9.07344 1.94131 18.0488 -9.56028 1.92989 18.1464 -10.0471 1.91848 18.2441 -10.5339 1.90706 18.3417 -11.0208 1.89565 18.4394 -11.5076 1.88423 18.537 -11.9945 1.87282 18.6347 -12.4813 1.8614 18.7323 -12.9681 1.84999 18.83 -13.455 1.83857 18.9277 -13.9418 1.82715 19.0253 -14.4286 1.81574 19.123 -14.9155 1.80432 19.2359 -15.3927 1.79321 19.3488 -15.87 1.7821 19.4617 -16.3472 1.771 19.5747 -16.8245 1.75989 19.6876 -17.3018 1.74878 19.8005 -17.779 1.73767 19.9134 -18.2563 1.72656 20.0263 -18.7335 1.71545 20.1393 -19.2108 1.70434 20.2522 -19.6881 1.69323 20.3651 -20.1653 1.68212 20.478 -20.6426 1.67102 20.591 -21.1198 1.65991 20.7039 -21.5971 1.6488 20.8168 -22.0744 1.63769 20.9297 -22.5516 1.62658 21.0427 -23.0289 1.61547 21.1556 -23.5061 1.60436 21.2685 -23.9834 1.59325 21.3814 -24.4607 1.58214 21.4944 -24.9379 1.57104 21.6073 -25.4152 1.55993 21.7202 -25.8924 1.54882 15.73774 -1.33568 2.35068 17.29741 -1.33545 2.210469 17.88664 -5.0141 2.124885 18.0184 -5.68201 2.107526 17.42164 -2.64409 2.187441 15.93077 -2.9669 2.322456 16.0866 -3.76026 2.303628 16.24063 -4.55487 2.2843 16.39701 -5.34977 2.26731 17.57707 -3.43845 2.166284 17.73283 -4.23234 2.145339 16.52219 -5.98813 2.24826 16.65114 -6.63767 2.227743 18.14644 -6.32952 2.090788 17.72062 -11.8216 2.050085 19.18279 -11.5275 1.958524 19.0527 -10.8776 1.974918 18.92261 -10.2274 1.99135 18.40427 -7.62903 2.057417 17.58427 -11.1734 2.071914 17.44837 -10.5252 2.094153 18.27515 -6.97893 2.074077 17.31314 -9.87696 2.11669 15.87199 -2.00324 1.979563 16.91232 -7.93245 2.184405 16.78088 -7.28432 2.206423 17.17855 -9.22877 2.13935 17.04497 -8.5806 2.161989 18.53337 -8.27775 2.040851 18.79269 -9.57752 2.00781 18.66286 -8.92729 2.024317 19.31292 -12.1776 1.942154 19.44299 -12.8278 1.92581 19.57295 -13.478 1.90949 17.85711 -12.4698 2.028789 17.99379 -13.1181 2.00815 18.13035 -13.7663 1.988249 19.70266 -14.1281 1.893201 18.26651 -14.4145 1.969153 21.4328 -22.8756 1.676761 20.70937 -19.1845 1.763328 20.5637 -18.4462 1.781947 20.99915 -20.6609 1.727346 20.85444 -19.9227 1.745146 21.1441 -21.3991 1.713362 20.02835 -20.884 1.747193 20.22852 -21.6079 1.722165 19.6275 -19.4344 1.79485 19.42732 -18.7116 1.818969 19.82848 -20.1611 1.770863 19.02488 -17.2609 1.866041 19.22546 -17.9836 1.841254 20.41765 -17.7081 1.803297 19.85953 -14.9152 1.873656 18.37143 -14.9156 1.954968 19.97587 -15.4945 1.860008 18.62145 -15.811 1.917837 18.82339 -16.5359 1.89154 20.27156 -16.9733 1.822655 20.12377 -16.2331 1.842653 21.2884 -22.1374 1.695032 21.72192 -24.3519 1.640306 21.57719 -23.6137 1.658535 21.86685 -25.0901 1.622077 21.23604 -25.2328 1.604712 21.42071 -25.8925 1.583264 20.42955 -22.3336 1.698629 20.63113 -23.0604 1.675096 20.83191 -23.7832 1.651698 21.03422 -24.51 1.628148 22.02516 -25.8923 1.603129 17.32945 -1.33662 1.892391 15.77725 -1.33674 1.999366 17.45838 -2.6442 1.880968 17.91835 -5.01063 1.838123 18.04967 -5.68248 1.826142 17.6124 -3.43881 1.866456 17.76674 -4.23285 1.852086 16.4327 -5.34603 1.912285 16.27867 -4.55548 1.933345 16.12386 -3.76105 1.953173 15.96824 -2.96765 1.973023 16.55749 -5.98944 1.895465 18.17657 -6.33022 1.814653 18.30421 -6.98017 1.803181 18.432 -7.62949 1.791771 16.94392 -7.93451 1.84179 16.81376 -7.28612 1.859769 16.68523 -6.63922 1.877579 17.23619 -2.00324 1.891002 17.07528 -8.58287 1.823874 17.34108 -9.87978 1.789026 17.20769 -9.23123 1.806227 17.47547 -10.5246 1.774605 17.60926 -11.1732 1.756652 19.87362 -14.9157 1.66645 18.81712 -9.57921 1.757776 18.68845 -8.92884 1.769075 18.94489 -10.2243 1.746607 18.56009 -8.27909 1.780403 19.07443 -10.8777 1.735329 19.71813 -14.127 1.679784 18.38956 -14.9154 1.677556 18.28585 -14.4154 1.688495 18.15109 -13.7669 1.702731 18.01612 -13.1183 1.717018 17.88028 -12.4699 1.729271 17.74441 -11.8216 1.741557 19.203 -11.5259 1.724175 19.33211 -12.177 1.713008 19.46127 -12.8285 1.701869 19.58976 -13.4775 1.690811 19.9897 -15.4951 1.657912 20.13642 -16.2336 1.647367 20.28316 -16.9738 1.636926 20.5726 -18.4471 1.616437 20.42792 -17.709 1.626689 20.71688 -19.1855 1.608257 20.03392 -20.8861 1.567051 19.83488 -20.1632 1.580027 19.63626 -19.4361 1.593085 19.43778 -18.7131 1.606258 19.23757 -17.9849 1.619661 19.0376 -17.2622 1.633177 18.83835 -16.537 1.646706 18.6381 -15.8118 1.660362 17.20149 -2.00367 2.235994 15.83607 -2.00356 2.35758 20.85978 -19.9244 1.596596 21.00389 -20.6623 1.586693 21.14742 -21.4007 1.5772 21.29056 -22.139 1.568115 21.43359 -22.8774 1.55933 20.83137 -23.7859 1.517203 20.63218 -23.0629 1.529306 20.43228 -22.3359 1.541712 20.23283 -21.61 1.554312 21.57243 -23.6166 1.55026 21.72014 -24.3539 1.542573 21.8639 -25.0922 1.534482 22.02033 -25.8924 1.525797 21.03216 -24.5129 1.505313 21.23232 -25.2358 1.493823 21.41467 -25.8923 1.483736 </DataArray>
      </Points>
      <PointData>
        <DataArray type="Int32" NumberOfComponents="1" format="ascii" Name="GRID_ID">2000 2001 2002 2003 2004 2005 2006 2007 2008 2009 2010 2011 2012 2013 2014 2015 2016 2017 2018 2019 2020 2021 2022 2023 2024 2025 2026 2027 2028 2029 2030 2031 2032 2033 2034 2035 2036 2037 2038 2039 2040 2041 2042 2043 2044 2045 2046 2047 2048 2049 2050 2051 2052 2000002 2000060 2000135 2000139 2000148 2000154 2000162 2000216 2000277 2000332 2000385 2000386 2000391 2000406 2000415 2000492 2000500 2000515 2000519 2000547 2000553 2000622 2000630 2000635 2000653 2000682 2000754 2000762 2000771 2000812 2000821 2000826 2000827 2000856 2000864 2000872 2000883 2000891 2000898 2000987 2000997 2001027 2001039 2001044 2001053 2001058 2001064 2001080 2001085 2001194 2001195 2001199 2001209 2001214 2001247 2001257 2001268 2001425 2001434 2001439 2001449 2001454 2001497 2001509 2001514 2001520 2001537 2001542 2001630 2001635 2001640 2001645 2001660 2001664 2001677 2001736 2001748 2001810 2001819 2001822 2001828 2001838 2001914 2001918 2001923 2001933 2002056 2002103 2002111 2002115 2002120 2002124 2002133 2002248 2002304 2002312 2002318 2002319 2002323 2002330 2002423 2002424 2002431 2002449 2002458 2002467 2002515 2002518 2002522 2002529 2002537 2002544 2002555 2002711 2002715 2002719 2002729 2002735 2002740 2002746 2002753 2002762 2002768 2002773 2002784 2002794 2002803 2002813 2002822 2002831 2002939 2002953 2003079 2003088 2003093 2003099 2003114 2003120 2003125 2003136 2003146 2003222 2003228 2003233 2003239 2003267 2003302 2003307 10002001 10002002 10002003 10002004 10002005 10002006 10002007 10002008 10002009 10002010 10002011 10002012 10002013 10002014 10002015 10002016 10002017 10002018 10002019 10002020 10002021 10002022 10002023 10002024 10002025 10002026 10002027 10002028 10002029 10002030 10002031 10002032 10002033 10002034 10002035 10002036 10002037 10002038 10002039 10002040 10002041 10002042 10002043 10002044 10002045 10002046 10002047 10002048 10002049 10002050 10002051 10002052 12000060 12000139 12000148 12000154 12000162 12000216 12000277 12000332 12000385 12000386 12000391 12000406 12000415 12000492 12000500 12000515 12000519 12000547 12000553 12000622 12000630 12000635 12000653 12000682 12000754 12000762 12000771 12000812 12000821 12000826 12000827 12000856 12000864 12000872 12000883 12000891 12000898 12000987 12000997 12001027 12001039 12001044 12001053 12001058 12001064 12001080 12001085 12001194 12001195 12001199 12001209 12001214 12001247 12001257 12001268 12001425 12001434 12001439 12001449 12001454 12001497 12001509 12001514 12001520 12001537 12001542 12001630 12001635 12001640 12001645 12001660 12001664 12001736 12001810 12001819 12001822 12001828 12001838 12001914 12001918 12001923 12001933 12002056 12002103 12002111 12002115 12002120 12002124 12002133 12002248 12002304 12002312 12002318 12002319 12002323 12002330 12002423 12002424 12002431 12002449 12002458 12002467 12002515 12002518 12002522 12002529 12002537 12002544 12002555 12002711 12002715 12002719 12002729 12002735 12002740 12002746 12002753 12002762 12002768 12002773 12002784 12002794 12002803 12002813 12002822 12002831 12002939 12002953 12003079 12003088 12003093 12003099 12003114 12003120 12003125 12003136 12003146 12003222 12003228 12003233 12003239 12003267 12003302 12003307 </DataArray>
      </PointData>
      <Cells>
        <DataArray type="Int32" format="ascii" Name="connectivity">0 53 0 55 0 127 0 129 1 54 1 56 1 126 1 128 2 78 2 146 2 183 2 184 3 59 3 60 3 130 3 138 4 59 4 60 4 130 4 138 5 61 5 64 5 133 5 137 6 61 6 64 6 133 6 137 7 62 7 65 7 134 7 136 8 62 8 65 8 134 8 136 9 57 9 63 9 131 9 135 10 58 10 66 10 132 10 139 11 67 11 68 11 140 11 145 12 67 12 68 12 140 12 145 13 76 13 80 13 141 13 144 14 73 14 79 14 142 14 143 15 82 15 83 15 147 15 156 16 82 16 83 16 147 16 156 17 81 17 85 17 149 17 154 18 77 18 84 18 148 18 153 19 72 19 75 19 150 19 155 20 72 20 75 20 150 20 155 21 71 21 74 21 151 21 157 22 69 22 70 22 164 22 165 23 86 23 89 23 163 23 166 24 86 24 89 24 163 24 166 25 87 25 90 25 162 25 167 26 88 26 91 26 161 26 168 27 92 27 93 27 158 27 160 28 92 28 93 28 158 28 160 29 108 29 109 29 152 29 159 30 110 30 111 30 169 30 182 31 110 31 111 31 169 31 182 32 112 32 114 32 170 32 181 33 105 33 113 33 171 33 180 34 105 34 113 34 171 34 180 35 106 35 107 35 173 35 179 36 96 36 103 36 172 36 178 37 96 37 103 37 172 37 178 38 95 38 102 38 174 38 177 39 98 39 104 39 176 39 185 40 98 40 104 40 176 40 185 41 97 41 100 41 175 41 186 42 97 42 100 42 175 42 186 43 99 43 101 43 187 43 193 44 115 44 121 44 188 44 192 45 115 45 121 45 188 45 192 46 94 46 122 46 189 46 191 47 117 47 123 47 190 47 194 48 117 48 123 48 190 48 194 49 116 49 124 49 195 49 198 50 118 50 119 50 196 50 199 51 118 51 119 51 196 51 199 52 120 52 125 52 197 52 200 201 253 201 254 201 324 201 325 202 276 202 342 202 379 202 380 203 257 203 258 203 326 203 334 204 257 204 258 204 326 204 334 205 259 205 262 205 329 205 333 206 259 206 262 206 329 206 333 207 260 207 263 207 330 207 332 208 260 208 263 208 330 208 332 209 255 209 261 209 327 209 331 210 256 210 264 210 328 210 335 211 265 211 266 211 336 211 341 212 265 212 266 212 336 212 341 213 274 213 278 213 337 213 340 214 271 214 277 214 338 214 339 215 280 215 281 215 343 215 352 216 280 216 281 216 343 216 352 217 279 217 283 217 345 217 350 218 275 218 282 218 344 218 349 219 270 219 273 219 346 219 351 220 270 220 273 220 346 220 351 221 269 221 272 221 347 221 353 222 267 222 268 222 360 222 361 223 284 223 287 223 359 223 362 224 284 224 287 224 359 224 362 225 285 225 288 225 358 225 363 226 286 226 289 226 357 226 364 227 290 227 291 227 354 227 356 228 290 228 291 228 354 228 356 229 306 229 307 229 348 229 355 230 308 230 309 230 365 230 378 231 308 231 309 231 365 231 378 232 310 232 312 232 366 232 377 233 303 233 311 233 367 233 376 234 303 234 311 234 367 234 376 235 304 235 305 235 369 235 375 236 294 236 301 236 368 236 374 237 294 237 301 237 368 237 374 238 293 238 300 238 370 238 373 239 296 239 302 239 372 239 381 240 296 240 302 240 372 240 381 241 295 241 298 241 371 241 382 242 295 242 298 242 371 242 382 243 297 243 299 243 383 243 389 244 313 244 319 244 384 244 388 245 313 245 319 245 384 245 388 246 292 246 320 246 385 246 387 247 315 247 321 247 386 247 390 248 315 248 321 248 386 248 390 249 314 249 322 249 391 249 394 250 316 250 317 250 392 250 395 251 316 251 317 251 392 251 395 252 318 252 323 252 393 252 396 </DataArray>
        <DataArray type="Int32" format="ascii" Name="offsets">2 4 6 8 10 12 14 16 18 20 22 24 26 28 30 32 34 36 38 40 42 44 46 48 50 52 54 56 58 60 62 64 66 68 70 72 74 76 78 80 82 84 86 88 90 92 94 96 98 100 102 104 106 108 110 112 114 116 118 120 122 124 126 128 130 132 134 136 138 140 142 144 146 148 150 152 154 156 158 160 162 164 166 168 170 172 174 176 178 180 182 184 186 188 190 192 194 196 198 200 202 204 206 208 210 212 214 216 218 220 222 224 226 228 230 232 234 236 238 240 242 244 246 248 250 252 254 256 258 260 262 264 266 268 270 272 274 276 278 280 282 284 286 288 290 292 294 296 298 300 302 304 306 308 310 312 314 316 318 320 322 324 326 328 330 332 334 336 338 340 342 344 346 348 350 352 354 356 358 360 362 364 366 368 370 372 374 376 378 380 382 384 386 388 390 392 394 396 398 400 402 404 406 408 410 412 414 416 418 420 422 424 426 428 430 432 434 436 438 440 442 444 446 448 450 452 454 456 458 460 462 464 466 468 470 472 474 476 478 480 482 484 486 488 490 492 494 496 498 500 502 504 506 508 510 512 514 516 518 520 522 524 526 528 530 532 534 536 538 540 542 544 546 548 550 552 554 556 558 560 562 564 566 568 570 572 574 576 578 580 582 584 586 588 590 592 594 596 598 600 602 604 606 608 610 612 614 616 618 620 622 624 626 628 630 632 634 636 638 640 642 644 646 648 650 652 654 656 658 660 662 664 666 668 670 672 674 676 678 680 682 684 686 688 690 692 694 696 698 700 702 704 706 708 710 712 714 716 718 720 722 724 726 728 730 732 734 736 738 740 742 744 746 748 750 752 754 756 758 760 762 764 766 768 770 772 774 776 778 780 782 784 786 788 790 792 794 796 798 800 802 804 806 808 810 812 814 816 818 820 822 824 826 828 830 832 834 836 838 840 </DataArray>
        <DataArray type="Int32" format="ascii" Name="types">3 3 3 3 3 3 3 3 3 3 3 3 3 3 3 3 3 3 3 3 3 3 3 3 3 3 3 3 3 3 3 3 3 3 3 3 3 3 3 3 3 3 3 3 3 3 3 3 3 3 3 3 3 3 3 3 3 3 3 3 3 3 3 3 3 3 3 3 3 3 3 3 3 3 3 3 3 3 3 3 3 3 3 3 3 3 3 3 3 3 3 3 3 3 3 3 3 3 3 3 3 3 3 3 3 3 3 3 3 3 3 3 3 3 3 3 3 3 3 3 3 3 3 3 3 3 3 3 3 3 3 3 3 3 3 3 3 3 3 3 3 3 3 3 3 3 3 3 3 3 3 3 3 3 3 3 3 3 3 3 3 3 3 3 3 3 3 3 3 3 3 3 3 3 3 3 3 3 3 3 3 3 3 3 3 3 3 3 3 3 3 3 3 3 3 3 3 3 3 3 3 3 3 3 3 3 3 3 3 3 3 3 3 3 3 3 3 3 3 3 3 3 3 3 3 3 3 3 3 3 3 3 3 3 3 3 3 3 3 3 3 3 3 3 3 3 3 3 3 3 3 3 3 3 3 3 3 3 3 3 3 3 3 3 3 3 3 3 3 3 3 3 3 3 3 3 3 3 3 3 3 3 3 3 3 3 3 3 3 3 3 3 3 3 3 3 3 3 3 3 3 3 3 3 3 3 3 3 3 3 3 3 3 3 3 3 3 3 3 3 3 3 3 3 3 3 3 3 3 3 3 3 3 3 3 3 3 3 3 3 3 3 3 3 3 3 3 3 3 3 3 3 3 3 3 3 3 3 3 3 3 3 3 3 3 3 3 3 3 3 3 3 3 3 3 3 3 3 3 3 3 3 3 3 3 3 3 3 3 3 3 3 3 3 3 3 3 3 3 3 3 3 3 3 3 3 3 3 3 3 3 3 3 3 3 3 3 3 3 3 </DataArray>
      </Cells>
      <CellData>
        <DataArray type="Int32" NumberOfComponents="1" format="ascii" Name="ELEM_ID">2000145 2000145 2000145 2000145 2000146 2000146 2000146 2000146 2000147 2000147 2000147 2000147 2000148 2000148 2000148 2000148 2000149 2000149 2000149 2000149 2000150 2000150 2000150 2000150 2000151 2000151 2000151 2000151 2000152 2000152 2000152 2000152 2000153 2000153 2000153 2000153 2000154 2000154 2000154 2000154 2000155 2000155 2000155 2000155 2000156 2000156 2000156 2000156 2000157 2000157 2000157 2000157 2000158 2000158 2000158 2000158 2000159 2000159 2000159 2000159 2000160 2000160 2000160 2000160 2000161 2000161 2000161 2000161 2000162 2000162 2000162 2000162 2000163 2000163 2000163 2000163 2000164 2000164 2000164 2000164 2000165 2000165 2000165 2000165 2000166 2000166 2000166 2000166 2000167 2000167 2000167 2000167 2000168 2000168 2000168 2000168 2000169 2000169 2000169 2000169 2000170 2000170 2000170 2000170 2000171 2000171 2000171 2000171 2000172 2000172 2000172 2000172 2000173 2000173 2000173 2000173 2000174 2000174 2000174 2000174 2000175 2000175 2000175 2000175 2000176 2000176 2000176 2000176 2000177 2000177 2000177 2000177 2000178 2000178 2000178 2000178 2000179 2000179 2000179 2000179 2000180 2000180 2000180 2000180 2000181 2000181 2000181 2000181 2000182 2000182 2000182 2000182 2000183 2000183 2000183 2000183 2000184 2000184 2000184 2000184 2000185 2000185 2000185 2000185 2000186 2000186 2000186 2000186 2000187 2000187 2000187 2000187 2000188 2000188 2000188 2000188 2000189 2000189 2000189 2000189 2000190 2000190 2000190 2000190 2000191 2000191 2000191 2000191 2000192 2000192 2000192 2000192 2000193 2000193 2000193 2000193 2000194 2000194 2000194 2000194 2000195 2000195 2000195 2000195 2000196 2000196 2000196 2000196 2000197 2000197 2000197 2000197 12000146 12000146 12000146 12000146 12000147 12000147 12000147 12000147 12000148 12000148 12000148 12000148 12000149 12000149 12000149 12000149 12000150 12000150 12000150 12000150 12000151 12000151 12000151 12000151 12000152 12000152 12000152 12000152 12000153 12000153 12000153 12000153 12000154 12000154 12000154 12000154 12000155 12000155 12000155 12000155 12000156 12000156 12000156 12000156 12000157 12000157 12000157 12000157 12000158 12000158 12000158 12000158 12000159 12000159 12000159 12000159 12000160 12000160 12000160 12000160 12000161 12000161 12000161 12000161 12000162 12000162 12000162 12000162 12000163 12000163 12000163 12000163 12000164 12000164 12000164 12000164 12000165 12000165 12000165 12000165 12000166 12000166 12000166 12000166 12000167 12000167 12000167 12000167 12000168 12000168 12000168 12000168 12000169 12000169 12000169 12000169 12000170 12000170 12000170 12000170 12000171 12000171 12000171 12000171 12000172 12000172 12000172 12000172 12000173 12000173 12000173 12000173 12000174 12000174 12000174 12000174 12000175 12000175 12000175 12000175 12000176 12000176 12000176 12000176 12000177 12000177 12000177 12000177 12000178 12000178 12000178 12000178 12000179 12000179 12000179 12000179 12000180 12000180 12000180 12000180 12000181 12000181 12000181 12000181 12000182 12000182 12000182 12000182 12000183 12000183 12000183 12000183 12000184 12000184 12000184 12000184 12000185 12000185 12000185 12000185 12000186 12000186 12000186 12000186 12000187 12000187 12000187 12000187 12000188 12000188 12000188 12000188 12000189 12000189 12000189 12000189 12000190 12000190 12000190 12000190 12000191 12000191 12000191 12000191 12000192 12000192 12000192 12000192 12000193 12000193 12000193 12000193 12000194 12000194 12000194 12000194 12000195 12000195 12000195 12000195 12000196 12000196 12000196 12000196 12000197 12000197 12000197 12000197 </DataArray>
      </CellData>
    </Piece>
  </UnstructuredGrid>
</VTKFile>
