TITLE = "Reduced Structural Grid"
VARIABLES = "x" "y" "z" "id" "familynum" "forcenode" "displnode" "body"
ZONE T="Structural nodes" I=25 , J=1, K=1, F=POINT
0.000000000000000e+00 0.000000000000000e+00 0.000000000000000e+00 0 1 1 1 1
2.500000000000000e-01 -3.333330000000000e-01 0.000000000000000e+00 1 1 1 1 1
5.000000000000000e-01 -6.666670000000000e-01 0.000000000000000e+00 2 1 1 1 1
7.500000000000000e-01 -1.000000000000000e+00 0.000000000000000e+00 3 1 1 1 1
1.000000000000000e+00 -1.333330000000000e+00 0.000000000000000e+00 4 1 1 1 1
1.250000000000000e+00 -1.666670000000000e+00 0.000000000000000e+00 5 1 1 1 1
1.500000000000000e+00 -2.000000000000000e+00 0.000000000000000e+00 6 1 1 1 1
1.750000000000000e+00 -2.333330000000000e+00 0.000000000000000e+00 7 1 1 1 1
2.000000000000000e+00 -2.666670000000000e+00 0.000000000000000e+00 8 1 1 1 1
2.250000000000000e+00 -3.000000000000000e+00 0.000000000000000e+00 9 1 1 1 1
2.500000000000000e+00 -3.333330000000000e+00 0.000000000000000e+00 10 1 1 1 1
2.750000000000000e+00 -3.666670000000000e+00 0.000000000000000e+00 11 1 1 1 1
3.000000000000000e+00 -4.000000000000000e+00 0.000000000000000e+00 12 1 1 1 1
3.250000000000000e+00 -4.333330000000000e+00 0.000000000000000e+00 13 1 1 1 1
3.500000000000000e+00 -4.666670000000000e+00 0.000000000000000e+00 14 1 1 1 1
3.750000000000000e+00 -5.000000000000000e+00 0.000000000000000e+00 15 1 1 1 1
4.000000000000000e+00 -5.333330000000000e+00 0.000000000000000e+00 16 1 1 1 1
4.250000000000000e+00 -5.666670000000000e+00 0.000000000000000e+00 17 1 1 1 1
4.500000000000000e+00 -6.000000000000000e+00 0.000000000000000e+00 18 1 1 1 1
4.750000000000000e+00 -6.333330000000000e+00 0.000000000000000e+00 19 1 1 1 1
5.000000000000000e+00 -6.666670000000000e+00 0.000000000000000e+00 20 1 1 1 1
5.250000000000000e+00 -7.000000000000000e+00 0.000000000000000e+00 21 1 1 1 1
5.500000000000000e+00 -7.333330000000000e+00 0.000000000000000e+00 22 1 1 1 1
5.750000000000000e+00 -7.666670000000000e+00 0.000000000000000e+00 23 1 1 1 1
6.000000000000000e+00 -8.000000000000000e+00 0.000000000000000e+00 24 1 1 1 1
